benceno_FC                                                              
SP        RB3LYP TD-FC                                                def2TZVP            
Number of atoms                            I               12
Info1-9                                    I   N=           9
          18           8           0           0           0         110
           1         218        -501
Charge                                     I                0
Multiplicity                               I                1
Number of electrons                        I               42
Number of alpha electrons                  I               21
Number of beta electrons                   I               21
Number of basis functions                  I              222
Number of independent functions            I              222
Number of point charges in /Mol/           I                0
Number of translation vectors              I                0
Atomic numbers                             I   N=          12
           6           6           6           1           1           6
           6           1           1           6           1           1
Nuclear charges                            R   N=          12
  6.00000000E+00  6.00000000E+00  6.00000000E+00  1.00000000E+00  1.00000000E+00
  6.00000000E+00  6.00000000E+00  1.00000000E+00  1.00000000E+00  6.00000000E+00
  1.00000000E+00  1.00000000E+00
Current cartesian coordinates              R   N=          36
 -1.58823862E-07  2.62904936E+00  4.22380350E-17 -2.27682361E+00  1.31452454E+00
 -2.36592430E-16  2.27682345E+00  1.31452482E+00  3.21068500E-16 -4.04930741E+00
  2.33786839E+00 -4.53659083E-16  4.04930712E+00  2.33786888E+00  1.03403227E-15
 -2.27682345E+00 -1.31452482E+00 -2.36592430E-16  2.27682361E+00 -1.31452454E+00
  3.21068500E-16 -4.04930712E+00 -2.33786888E+00 -1.67352748E-16  4.04930741E+00
 -2.33786839E+00  5.38135153E-16  1.58823863E-07 -2.62904936E+00  4.22380350E-17
  2.82466611E-07 -4.67573728E+00  4.22380350E-17 -2.82466609E-07  4.67573728E+00
  4.22380350E-17
Force Field                                I                0
Int Atom Types                             I   N=          12
           0           0           0           0           0           0
           0           0           0           0           0           0
MM charges                                 R   N=          12
  0.00000000E+00  0.00000000E+00  0.00000000E+00  0.00000000E+00  0.00000000E+00
  0.00000000E+00  0.00000000E+00  0.00000000E+00  0.00000000E+00  0.00000000E+00
  0.00000000E+00  0.00000000E+00
Integer atomic weights                     I   N=          12
          12          12          12           1           1          12
          12           1           1          12           1           1
Real atomic weights                        R   N=          12
  1.20000000E+01  1.20000000E+01  1.20000000E+01  1.00782504E+00  1.00782504E+00
  1.20000000E+01  1.20000000E+01  1.00782504E+00  1.00782504E+00  1.20000000E+01
  1.00782504E+00  1.00782504E+00
Atom fragment info                         I   N=          12
           0           0           0           0           0           0
           0           0           0           0           0           0
Atom residue num                           I   N=          12
           0           0           0           0           0           0
           0           0           0           0           0           0
Nuclear spins                              I   N=          12
           0           0           0           1           1           0
           0           1           1           0           1           1
Nuclear ZEff                               R   N=          12
 -3.60000000E+00 -3.60000000E+00 -3.60000000E+00 -1.00000000E+00 -1.00000000E+00
 -3.60000000E+00 -3.60000000E+00 -1.00000000E+00 -1.00000000E+00 -3.60000000E+00
 -1.00000000E+00 -1.00000000E+00
Nuclear ZNuc                               R   N=          12
  6.00000000E+00  6.00000000E+00  6.00000000E+00  1.00000000E+00  1.00000000E+00
  6.00000000E+00  6.00000000E+00  1.00000000E+00  1.00000000E+00  6.00000000E+00
  1.00000000E+00  1.00000000E+00
Nuclear QMom                               R   N=          12
  0.00000000E+00  0.00000000E+00  0.00000000E+00  0.00000000E+00  0.00000000E+00
  0.00000000E+00  0.00000000E+00  0.00000000E+00  0.00000000E+00  0.00000000E+00
  0.00000000E+00  0.00000000E+00
Nuclear GFac                               R   N=          12
  0.00000000E+00  0.00000000E+00  0.00000000E+00  2.79284600E+00  2.79284600E+00
  0.00000000E+00  0.00000000E+00  2.79284600E+00  2.79284600E+00  0.00000000E+00
  2.79284600E+00  2.79284600E+00
MicOpt                                     I   N=          12
          -1          -1          -1          -1          -1          -1
          -1          -1          -1          -1          -1          -1
Number of contracted shells                I               90
Number of primitive shells                 I              156
Pure/Cartesian d shells                    I                0
Pure/Cartesian f shells                    I                0
Highest angular momentum                   I                3
Largest degree of contraction              I                6
Shell types                                I   N=          90
           0           0           0           0           0           1
           1           1          -2          -2          -3           0
           0           0           0           0           1           1
           1          -2          -2          -3           0           0
           0           0           0           1           1           1
          -2          -2          -3           0           0           0
           1           0           0           0           1           0
           0           0           0           0           1           1
           1          -2          -2          -3           0           0
           0           0           0           1           1           1
          -2          -2          -3           0           0           0
           1           0           0           0           1           0
           0           0           0           0           1           1
           1          -2          -2          -3           0           0
           0           1           0           0           0           1
Number of primitives per shell             I   N=          90
           6           2           1           1           1           4
           1           1           1           1           1           6
           2           1           1           1           4           1
           1           1           1           1           6           2
           1           1           1           4           1           1
           1           1           1           3           1           1
           1           3           1           1           1           6
           2           1           1           1           4           1
           1           1           1           1           6           2
           1           1           1           4           1           1
           1           1           1           3           1           1
           1           3           1           1           1           6
           2           1           1           1           4           1
           1           1           1           1           3           1
           1           1           3           1           1           1
Shell to atom map                          I   N=          90
           1           1           1           1           1           1
           1           1           1           1           1           2
           2           2           2           2           2           2
           2           2           2           2           3           3
           3           3           3           3           3           3
           3           3           3           4           4           4
           4           5           5           5           5           6
           6           6           6           6           6           6
           6           6           6           6           7           7
           7           7           7           7           7           7
           7           7           7           8           8           8
           8           9           9           9           9          10
          10          10          10          10          10          10
          10          10          10          10          11          11
          11          11          12          12          12          12
Primitive exponents                        R   N=         156
  1.35753497E+04  2.03523337E+03  4.63225624E+02  1.31200196E+02  4.28530159E+01
  1.55841858E+01  6.20671385E+00  2.57648965E+00  5.76963394E-01  2.29728314E-01
  9.51644400E-02  3.46972322E+01  7.95826228E+00  2.37808269E+00  8.14332082E-01
  2.88875473E-01  1.00568237E-01  1.09700000E+00  3.18000000E-01  7.61000000E-01
  1.35753497E+04  2.03523337E+03  4.63225624E+02  1.31200196E+02  4.28530159E+01
  1.55841858E+01  6.20671385E+00  2.57648965E+00  5.76963394E-01  2.29728314E-01
  9.51644400E-02  3.46972322E+01  7.95826228E+00  2.37808269E+00  8.14332082E-01
  2.88875473E-01  1.00568237E-01  1.09700000E+00  3.18000000E-01  7.61000000E-01
  1.35753497E+04  2.03523337E+03  4.63225624E+02  1.31200196E+02  4.28530159E+01
  1.55841858E+01  6.20671385E+00  2.57648965E+00  5.76963394E-01  2.29728314E-01
  9.51644400E-02  3.46972322E+01  7.95826228E+00  2.37808269E+00  8.14332082E-01
  2.88875473E-01  1.00568237E-01  1.09700000E+00  3.18000000E-01  7.61000000E-01
  3.40613410E+01  5.12357460E+00  1.16466260E+00  3.27230410E-01  1.03072410E-01
  8.00000000E-01  3.40613410E+01  5.12357460E+00  1.16466260E+00  3.27230410E-01
  1.03072410E-01  8.00000000E-01  1.35753497E+04  2.03523337E+03  4.63225624E+02
  1.31200196E+02  4.28530159E+01  1.55841858E+01  6.20671385E+00  2.57648965E+00
  5.76963394E-01  2.29728314E-01  9.51644400E-02  3.46972322E+01  7.95826228E+00
  2.37808269E+00  8.14332082E-01  2.88875473E-01  1.00568237E-01  1.09700000E+00
  3.18000000E-01  7.61000000E-01  1.35753497E+04  2.03523337E+03  4.63225624E+02
  1.31200196E+02  4.28530159E+01  1.55841858E+01  6.20671385E+00  2.57648965E+00
  5.76963394E-01  2.29728314E-01  9.51644400E-02  3.46972322E+01  7.95826228E+00
  2.37808269E+00  8.14332082E-01  2.88875473E-01  1.00568237E-01  1.09700000E+00
  3.18000000E-01  7.61000000E-01  3.40613410E+01  5.12357460E+00  1.16466260E+00
  3.27230410E-01  1.03072410E-01  8.00000000E-01  3.40613410E+01  5.12357460E+00
  1.16466260E+00  3.27230410E-01  1.03072410E-01  8.00000000E-01  1.35753497E+04
  2.03523337E+03  4.63225624E+02  1.31200196E+02  4.28530159E+01  1.55841858E+01
  6.20671385E+00  2.57648965E+00  5.76963394E-01  2.29728314E-01  9.51644400E-02
  3.46972322E+01  7.95826228E+00  2.37808269E+00  8.14332082E-01  2.88875473E-01
  1.00568237E-01  1.09700000E+00  3.18000000E-01  7.61000000E-01  3.40613410E+01
  5.12357460E+00  1.16466260E+00  3.27230410E-01  1.03072410E-01  8.00000000E-01
  3.40613410E+01  5.12357460E+00  1.16466260E+00  3.27230410E-01  1.03072410E-01
  8.00000000E-01
Contraction coefficients                   R   N=         156
  6.06455036E-04  4.69790889E-03  2.43324776E-02  9.73999683E-02  3.01955843E-01
  6.62336091E-01  6.55953085E-01  3.75856333E-01  1.00000000E+00  1.00000000E+00
  1.00000000E+00  1.13272200E-02  7.61696592E-02  3.01922522E-01  7.27850273E-01
  1.00000000E+00  1.00000000E+00  1.00000000E+00  1.00000000E+00  1.00000000E+00
  6.06455036E-04  4.69790889E-03  2.43324776E-02  9.73999683E-02  3.01955843E-01
  6.62336091E-01  6.55953085E-01  3.75856333E-01  1.00000000E+00  1.00000000E+00
  1.00000000E+00  1.13272200E-02  7.61696592E-02  3.01922522E-01  7.27850273E-01
  1.00000000E+00  1.00000000E+00  1.00000000E+00  1.00000000E+00  1.00000000E+00
  6.06455036E-04  4.69790889E-03  2.43324776E-02  9.73999683E-02  3.01955843E-01
  6.62336091E-01  6.55953085E-01  3.75856333E-01  1.00000000E+00  1.00000000E+00
  1.00000000E+00  1.13272200E-02  7.61696592E-02  3.01922522E-01  7.27850273E-01
  1.00000000E+00  1.00000000E+00  1.00000000E+00  1.00000000E+00  1.00000000E+00
  2.54393072E-02  1.90085949E-01  8.52441130E-01  1.00000000E+00  1.00000000E+00
  1.00000000E+00  2.54393072E-02  1.90085949E-01  8.52441130E-01  1.00000000E+00
  1.00000000E+00  1.00000000E+00  6.06455036E-04  4.69790889E-03  2.43324776E-02
  9.73999683E-02  3.01955843E-01  6.62336091E-01  6.55953085E-01  3.75856333E-01
  1.00000000E+00  1.00000000E+00  1.00000000E+00  1.13272200E-02  7.61696592E-02
  3.01922522E-01  7.27850273E-01  1.00000000E+00  1.00000000E+00  1.00000000E+00
  1.00000000E+00  1.00000000E+00  6.06455036E-04  4.69790889E-03  2.43324776E-02
  9.73999683E-02  3.01955843E-01  6.62336091E-01  6.55953085E-01  3.75856333E-01
  1.00000000E+00  1.00000000E+00  1.00000000E+00  1.13272200E-02  7.61696592E-02
  3.01922522E-01  7.27850273E-01  1.00000000E+00  1.00000000E+00  1.00000000E+00
  1.00000000E+00  1.00000000E+00  2.54393072E-02  1.90085949E-01  8.52441130E-01
  1.00000000E+00  1.00000000E+00  1.00000000E+00  2.54393072E-02  1.90085949E-01
  8.52441130E-01  1.00000000E+00  1.00000000E+00  1.00000000E+00  6.06455036E-04
  4.69790889E-03  2.43324776E-02  9.73999683E-02  3.01955843E-01  6.62336091E-01
  6.55953085E-01  3.75856333E-01  1.00000000E+00  1.00000000E+00  1.00000000E+00
  1.13272200E-02  7.61696592E-02  3.01922522E-01  7.27850273E-01  1.00000000E+00
  1.00000000E+00  1.00000000E+00  1.00000000E+00  1.00000000E+00  2.54393072E-02
  1.90085949E-01  8.52441130E-01  1.00000000E+00  1.00000000E+00  1.00000000E+00
  2.54393072E-02  1.90085949E-01  8.52441130E-01  1.00000000E+00  1.00000000E+00
  1.00000000E+00
Coordinates of each shell                  R   N=         270
 -2.64697796E-23  2.62904936E+00  2.93873588E-39 -2.64697796E-23  2.62904936E+00
  2.93873588E-39 -2.64697796E-23  2.62904936E+00  2.93873588E-39 -2.64697796E-23
  2.62904936E+00  2.93873588E-39 -2.64697796E-23  2.62904936E+00  2.93873588E-39
 -2.64697796E-23  2.62904936E+00  2.93873588E-39 -2.64697796E-23  2.62904936E+00
  2.93873588E-39 -2.64697796E-23  2.62904936E+00  2.93873588E-39 -2.64697796E-23
  2.62904936E+00  2.93873588E-39 -2.64697796E-23  2.62904936E+00  2.93873588E-39
 -2.64697796E-23  2.62904936E+00  2.93873588E-39 -2.27682353E+00  1.31452468E+00
  0.00000000E+00 -2.27682353E+00  1.31452468E+00  0.00000000E+00 -2.27682353E+00
  1.31452468E+00  0.00000000E+00 -2.27682353E+00  1.31452468E+00  0.00000000E+00
 -2.27682353E+00  1.31452468E+00  0.00000000E+00 -2.27682353E+00  1.31452468E+00
  0.00000000E+00 -2.27682353E+00  1.31452468E+00  0.00000000E+00 -2.27682353E+00
  1.31452468E+00  0.00000000E+00 -2.27682353E+00  1.31452468E+00  0.00000000E+00
 -2.27682353E+00  1.31452468E+00  0.00000000E+00 -2.27682353E+00  1.31452468E+00
  0.00000000E+00  2.27682353E+00  1.31452468E+00 -4.93038066E-32  2.27682353E+00
  1.31452468E+00 -4.93038066E-32  2.27682353E+00  1.31452468E+00 -4.93038066E-32
  2.27682353E+00  1.31452468E+00 -4.93038066E-32  2.27682353E+00  1.31452468E+00
 -4.93038066E-32  2.27682353E+00  1.31452468E+00 -4.93038066E-32  2.27682353E+00
  1.31452468E+00 -4.93038066E-32  2.27682353E+00  1.31452468E+00 -4.93038066E-32
  2.27682353E+00  1.31452468E+00 -4.93038066E-32  2.27682353E+00  1.31452468E+00
 -4.93038066E-32  2.27682353E+00  1.31452468E+00 -4.93038066E-32 -4.04930726E+00
  2.33786864E+00  1.97215226E-31 -4.04930726E+00  2.33786864E+00  1.97215226E-31
 -4.04930726E+00  2.33786864E+00  1.97215226E-31 -4.04930726E+00  2.33786864E+00
  1.97215226E-31  4.04930726E+00  2.33786864E+00  4.95897118E-16  4.04930726E+00
  2.33786864E+00  4.95897118E-16  4.04930726E+00  2.33786864E+00  4.95897118E-16
  4.04930726E+00  2.33786864E+00  4.95897118E-16 -2.27682353E+00 -1.31452468E+00
  4.93038066E-32 -2.27682353E+00 -1.31452468E+00  4.93038066E-32 -2.27682353E+00
 -1.31452468E+00  4.93038066E-32 -2.27682353E+00 -1.31452468E+00  4.93038066E-32
 -2.27682353E+00 -1.31452468E+00  4.93038066E-32 -2.27682353E+00 -1.31452468E+00
  4.93038066E-32 -2.27682353E+00 -1.31452468E+00  4.93038066E-32 -2.27682353E+00
 -1.31452468E+00  4.93038066E-32 -2.27682353E+00 -1.31452468E+00  4.93038066E-32
 -2.27682353E+00 -1.31452468E+00  4.93038066E-32 -2.27682353E+00 -1.31452468E+00
  4.93038066E-32  2.27682353E+00 -1.31452468E+00 -4.93038066E-32  2.27682353E+00
 -1.31452468E+00 -4.93038066E-32  2.27682353E+00 -1.31452468E+00 -4.93038066E-32
  2.27682353E+00 -1.31452468E+00 -4.93038066E-32  2.27682353E+00 -1.31452468E+00
 -4.93038066E-32  2.27682353E+00 -1.31452468E+00 -4.93038066E-32  2.27682353E+00
 -1.31452468E+00 -4.93038066E-32  2.27682353E+00 -1.31452468E+00 -4.93038066E-32
  2.27682353E+00 -1.31452468E+00 -4.93038066E-32  2.27682353E+00 -1.31452468E+00
 -4.93038066E-32  2.27682353E+00 -1.31452468E+00 -4.93038066E-32 -4.04930726E+00
 -2.33786864E+00  2.86306335E-16 -4.04930726E+00 -2.33786864E+00  2.86306335E-16
 -4.04930726E+00 -2.33786864E+00  2.86306335E-16 -4.04930726E+00 -2.33786864E+00
  2.86306335E-16  4.04930726E+00 -2.33786864E+00  0.00000000E+00  4.04930726E+00
 -2.33786864E+00  0.00000000E+00  4.04930726E+00 -2.33786864E+00  0.00000000E+00
  4.04930726E+00 -2.33786864E+00  0.00000000E+00  3.21965720E-16 -2.62904936E+00
 -2.45157281E-33  3.21965720E-16 -2.62904936E+00 -2.45157281E-33  3.21965720E-16
 -2.62904936E+00 -2.45157281E-33  3.21965720E-16 -2.62904936E+00 -2.45157281E-33
  3.21965720E-16 -2.62904936E+00 -2.45157281E-33  3.21965720E-16 -2.62904936E+00
 -2.45157281E-33  3.21965720E-16 -2.62904936E+00 -2.45157281E-33  3.21965720E-16
 -2.62904936E+00 -2.45157281E-33  3.21965720E-16 -2.62904936E+00 -2.45157281E-33
  3.21965720E-16 -2.62904936E+00 -2.45157281E-33  3.21965720E-16 -2.62904936E+00
 -2.45157281E-33  3.55271368E-15 -4.67573728E+00  1.44237788E-31  3.55271368E-15
 -4.67573728E+00  1.44237788E-31  3.55271368E-15 -4.67573728E+00  1.44237788E-31
  3.55271368E-15 -4.67573728E+00  1.44237788E-31 -1.77635684E-15  4.67573728E+00
  8.19554955E-32 -1.77635684E-15  4.67573728E+00  8.19554955E-32 -1.77635684E-15
  4.67573728E+00  8.19554955E-32 -1.77635684E-15  4.67573728E+00  8.19554955E-32
Constraint Structure                       R   N=          36
 -2.64697796E-23  2.62904936E+00  2.93873588E-39 -2.27682353E+00  1.31452468E+00
  0.00000000E+00  2.27682353E+00  1.31452468E+00 -4.93038066E-32 -4.04930726E+00
  2.33786864E+00  1.97215226E-31  4.04930726E+00  2.33786864E+00  4.95897118E-16
 -2.27682353E+00 -1.31452468E+00  4.93038066E-32  2.27682353E+00 -1.31452468E+00
 -4.93038066E-32 -4.04930726E+00 -2.33786864E+00  2.86306335E-16  4.04930726E+00
 -2.33786864E+00  0.00000000E+00  3.21965720E-16 -2.62904936E+00 -2.45157281E-33
  3.55271368E-15 -4.67573728E+00  1.44237788E-31 -1.77635684E-15  4.67573728E+00
  8.19554955E-32
Num ILSW                                   I              100
ILSW                                       I   N=         100
           0           0           0           0           2           0
           0           0           0           0         402          -1
           0           0           0           0           0           0
           0           0           0           0           0           0
           1           0           0           0           0           0
           0           0      100000           0          -1           0
           0           0           0           0           0           0
           0           0           0           1           0           0
           0           0           1           0           0           0
           0           0           4          41           0           0
           0           0           5           0           0           0
           0           0           0          12           0           0
           0           0           0           0           0           0
           0           0           0           0           0           0
           0           0           0           0           0           0
           0           0           0           0           0           0
           0           0           0           0
Num RLSW                                   I               41
RLSW                                       R   N=          41
  8.00000000E-01  7.20000000E-01  1.00000000E+00  8.10000000E-01  2.00000000E-01
  0.00000000E+00  0.00000000E+00  1.00000000E+00  0.00000000E+00  0.00000000E+00
  0.00000000E+00  0.00000000E+00  1.00000000E+00  0.00000000E+00  0.00000000E+00
  0.00000000E+00  0.00000000E+00  1.00000000E+00  0.00000000E+00  0.00000000E+00
  0.00000000E+00  0.00000000E+00  1.00000000E+00  0.00000000E+00  0.00000000E+00
  0.00000000E+00  0.00000000E+00  1.00000000E+00  0.00000000E+00  0.00000000E+00
  0.00000000E+00  0.00000000E+00  1.00000000E+00  0.00000000E+00  0.00000000E+00
  0.00000000E+00  0.00000000E+00  0.00000000E+00  1.00000000E+00  1.00000000E+00
  0.00000000E+00
ECP-MxAtEC                                 I           250000
ECP-MaxLECP                                I               10
ECP-MaxAtL                                 I          2250000
ECP-MxTECP                                 I         11250000
ECP-LenNCZ                                 I                0
ECP-KFirst                                 I   N=         120
           0           0           0           0           0           0
           0           0           0           0           0           0
           0           0           0           0           0           0
           0           0           0           0           0           0
           0           0           0           0           0           0
           0           0           0           0           0           0
           0           0           0           0           0           0
           0           0           0           0           0           0
           0           0           0           0           0           0
           0           0           0           0           0           0
           0           0           0           0           0           0
           0           0           0           0           0           0
           0           0           0           0           0           0
           0           0           0           0           0           0
           0           0           0           0           0           0
           0           0           0           0           0           0
           0           0           0           0           0           0
           0           0           0           0           0           0
           0           0           0           0           0           0
           0           0           0           0           0           0
ECP-KLast                                  I   N=         120
           0           0           0           0           0           0
           0           0           0           0           0           0
           0           0           0           0           0           0
           0           0           0           0           0           0
           0           0           0           0           0           0
           0           0           0           0           0           0
           0           0           0           0           0           0
           0           0           0           0           0           0
           0           0           0           0           0           0
           0           0           0           0           0           0
           0           0           0           0           0           0
           0           0           0           0           0           0
           0           0           0           0           0           0
           0           0           0           0           0           0
           0           0           0           0           0           0
           0           0           0           0           0           0
           0           0           0           0           0           0
           0           0           0           0           0           0
           0           0           0           0           0           0
           0           0           0           0           0           0
ECP-LMax                                   I   N=          12
           0           0           0           0           0           0
           0           0           0           0           0           0
ECP-LPSkip                                 I   N=          12
           1           1           1           1           1           1
           1           1           1           1           1           1
ECP-RNFroz                                 R   N=          12
  0.00000000E+00  0.00000000E+00  0.00000000E+00  0.00000000E+00  0.00000000E+00
  0.00000000E+00  0.00000000E+00  0.00000000E+00  0.00000000E+00  0.00000000E+00
  0.00000000E+00  0.00000000E+00
ECP-NLP                                    I                0
ECP-CLP1                                   R      0.000000000000000E+00
ECP-CLP2                                   R      0.000000000000000E+00
ECP-ZLP                                    R      0.000000000000000E+00
MxBond                                     I                3
NBond                                      I   N=          12
           3           3           3           1           1           3
           3           1           1           3           1           1
IBond                                      I   N=          36
           2           3          12           1           4           6
           1           5           7           2           0           0
           3           0           0           2           8          10
           3           9          10           6           0           0
           7           0           0           6           7          11
          10           0           0           1           0           0
RBond                                      R   N=          36
  1.50000000E+00  1.50000000E+00  1.00000000E+00  1.50000000E+00  1.00000000E+00
  1.50000000E+00  1.50000000E+00  1.00000000E+00  1.50000000E+00  1.00000000E+00
  0.00000000E+00  0.00000000E+00  1.00000000E+00  0.00000000E+00  0.00000000E+00
  1.50000000E+00  1.00000000E+00  1.50000000E+00  1.50000000E+00  1.00000000E+00
  1.50000000E+00  1.00000000E+00  0.00000000E+00  0.00000000E+00  1.00000000E+00
  0.00000000E+00  0.00000000E+00  1.50000000E+00  1.50000000E+00  1.00000000E+00
  1.00000000E+00  0.00000000E+00  0.00000000E+00  1.00000000E+00  0.00000000E+00
  0.00000000E+00
Virial Ratio                               R      2.005343685591399E+00
SCF Energy                                 R     -2.323373673271481E+02
CIS Energy                                 R     -2.321374580961873E+02
Total Energy                               R     -2.321374580961873E+02
Post-SCF wavefunction norm                 R      1.000000000000000E+00
RMS Density                                R      3.776840888279519E-10
External E-field                           R   N=          35
  0.00000000E+00  0.00000000E+00  0.00000000E+00  0.00000000E+00  0.00000000E+00
  0.00000000E+00  0.00000000E+00  0.00000000E+00  0.00000000E+00  0.00000000E+00
  0.00000000E+00  0.00000000E+00  0.00000000E+00  0.00000000E+00  0.00000000E+00
  0.00000000E+00  0.00000000E+00  0.00000000E+00  0.00000000E+00  0.00000000E+00
  0.00000000E+00  0.00000000E+00  0.00000000E+00  0.00000000E+00  0.00000000E+00
  0.00000000E+00  0.00000000E+00  0.00000000E+00  0.00000000E+00  0.00000000E+00
  0.00000000E+00  0.00000000E+00  0.00000000E+00  0.00000000E+00  0.00000000E+00
IOpCl                                      I                0
IROHF                                      I                0
Alpha Orbital Energies                     R   N=         222
 -8.88178420E-16 -1.11022302E-16  0.00000000E+00  0.00000000E+00  2.22044605E-16
  6.66133815E-16  2.27305377E-06  3.40276226E-06  4.12503838E-05  4.12522110E-05
  9.30189985E-05  9.31862558E-05  1.15573743E-04  1.15582276E-04  1.93815662E-04
  1.93819026E-04  2.06090702E-04  2.06101556E-04  5.14283917E-04  4.99547772E-01
  4.99554384E-01  4.99554384E-01  4.99547772E-01  5.14283917E-04  2.06101556E-04
  2.06090702E-04  1.93819026E-04  1.93815662E-04  1.15582276E-04  1.15573743E-04
  9.31862558E-05  9.30189985E-05  4.12522110E-05  4.12503838E-05  3.40276227E-06
  2.27305376E-06  1.55431223E-15  1.55431223E-15  1.55431223E-15  1.44328993E-15
  1.44328993E-15  1.33226763E-15  1.22124533E-15  1.11022302E-15  1.11022302E-15
  1.11022302E-15  1.11022302E-15  9.99200722E-16  9.99200722E-16  9.99200722E-16
  9.99200722E-16  9.99200722E-16  8.88178420E-16  8.88178420E-16  8.88178420E-16
  8.88178420E-16  8.88178420E-16  8.88178420E-16  8.88178420E-16  8.88178420E-16
  8.88178420E-16  7.77156117E-16  7.77156117E-16  7.77156117E-16  7.77156117E-16
  6.66133815E-16  6.66133815E-16  6.66133815E-16  6.66133815E-16  6.66133815E-16
  6.66133815E-16  6.66133815E-16  6.66133815E-16  6.66133815E-16  5.55111512E-16
  5.55111512E-16  5.55111512E-16  5.55111512E-16  5.55111512E-16  5.55111512E-16
  4.44089210E-16  4.44089210E-16  4.44089210E-16  4.44089210E-16  4.44089210E-16
  4.44089210E-16  4.44089210E-16  3.33066907E-16  3.33066907E-16  3.33066907E-16
  3.33066907E-16  3.33066907E-16  3.33066907E-16  3.33066907E-16  3.33066907E-16
  3.33066907E-16  3.33066907E-16  3.33066907E-16  2.22044605E-16  2.22044605E-16
  2.22044605E-16  2.22044605E-16  2.22044605E-16  2.22044605E-16  2.22044605E-16
  2.22044605E-16  2.22044605E-16  2.22044605E-16  2.22044605E-16  2.22044605E-16
  2.22044605E-16  2.22044605E-16  2.22044605E-16  1.11022302E-16  1.11022302E-16