 Entering Gaussian System, Link 0=g09
 Input=benceno-chk.com
 Output=benceno-chk.log
 Initial command:
 /home/lmod/software/Binaries/g09/D01/l1.exe "/home/courses/student25/TD-DFT/benceno/exercise/Gau-174702.inp" -scrdir="/home/courses/student25/TD-DFT/benceno/exercise/"
 Entering Link 1 = /home/lmod/software/Binaries/g09/D01/l1.exe PID=    174703.
  
 Copyright (c) 1988,1990,1992,1993,1995,1998,2003,2009,2013,
            Gaussian, Inc.  All Rights Reserved.
  
 This is part of the Gaussian(R) 09 program.  It is based on
 the Gaussian(R) 03 system (copyright 2003, Gaussian, Inc.),
 the Gaussian(R) 98 system (copyright 1998, Gaussian, Inc.),
 the Gaussian(R) 94 system (copyright 1995, Gaussian, Inc.),
 the Gaussian 92(TM) system (copyright 1992, Gaussian, Inc.),
 the Gaussian 90(TM) system (copyright 1990, Gaussian, Inc.),
 the Gaussian 88(TM) system (copyright 1988, Gaussian, Inc.),
 the Gaussian 86(TM) system (copyright 1986, Carnegie Mellon
 University), and the Gaussian 82(TM) system (copyright 1983,
 Carnegie Mellon University). Gaussian is a federally registered
 trademark of Gaussian, Inc.
  
 This software contains proprietary and confidential information,
 including trade secrets, belonging to Gaussian, Inc.
  
 This software is provided under written license and may be
 used, copied, transmitted, or stored only in accord with that
 written license.
  
 The following legend is applicable only to US Government
 contracts under FAR:
  
                    RESTRICTED RIGHTS LEGEND
  
 Use, reproduction and disclosure by the US Government is
 subject to restrictions as set forth in subparagraphs (a)
 and (c) of the Commercial Computer Software - Restricted
 Rights clause in FAR 52.227-19.
  
 Gaussian, Inc.
 340 Quinnipiac St., Bldg. 40, Wallingford CT 06492
  
  
 ---------------------------------------------------------------
 Warning -- This program may not be used in any manner that
 competes with the business of Gaussian, Inc. or will provide
 assistance to any competitor of Gaussian, Inc.  The licensee
 of this program is prohibited from giving any competitor of
 Gaussian, Inc. access to this program.  By using this program,
 the user acknowledges that Gaussian, Inc. is engaged in the
 business of creating and licensing software in the field of
 computational chemistry and represents and warrants to the
 licensee that it is not a competitor of Gaussian, Inc. and that
 it will not use this program in any manner prohibited above.
 ---------------------------------------------------------------
  

 Cite this work as:
 Gaussian 09, Revision D.01,
 M. J. Frisch, G. W. Trucks, H. B. Schlegel, G. E. Scuseria, 
 M. A. Robb, J. R. Cheeseman, G. Scalmani, V. Barone, B. Mennucci, 
 G. A. Petersson, H. Nakatsuji, M. Caricato, X. Li, H. P. Hratchian, 
 A. F. Izmaylov, J. Bloino, G. Zheng, J. L. Sonnenberg, M. Hada, 
 M. Ehara, K. Toyota, R. Fukuda, J. Hasegawa, M. Ishida, T. Nakajima, 
 Y. Honda, O. Kitao, H. Nakai, T. Vreven, J. A. Montgomery, Jr., 
 J. E. Peralta, F. Ogliaro, M. Bearpark, J. J. Heyd, E. Brothers, 
 K. N. Kudin, V. N. Staroverov, T. Keith, R. Kobayashi, J. Normand, 
 K. Raghavachari, A. Rendell, J. C. Burant, S. S. Iyengar, J. Tomasi, 
 M. Cossi, N. Rega, J. M. Millam, M. Klene, J. E. Knox, J. B. Cross, 
 V. Bakken, C. Adamo, J. Jaramillo, R. Gomperts, R. E. Stratmann, 
 O. Yazyev, A. J. Austin, R. Cammi, C. Pomelli, J. W. Ochterski, 
 R. L. Martin, K. Morokuma, V. G. Zakrzewski, G. A. Voth, 
 P. Salvador, J. J. Dannenberg, S. Dapprich, A. D. Daniels, 
 O. Farkas, J. B. Foresman, J. V. Ortiz, J. Cioslowski, 
 and D. J. Fox, Gaussian, Inc., Wallingford CT, 2013.
 
 ******************************************
 Gaussian 09:  ES64L-G09RevD.01 24-Apr-2013
                 5-Aug-2025 
 ******************************************
 %oldchk=benceno_FC.chk
 %chk=benceno_FC_NO.chk
 Copying data from "benceno_FC.chk" to current chk file "benceno_FC_NO.chk".
 ---------------------------------------------------------------
 # Guess=(read,Save,Only,NaturalOrbitals) Geom=AllCheck ChkBasis
 ---------------------------------------------------------------
 1/29=7,38=1/1;
 2/12=2,40=1/2;
 3/5=7,6=2,11=9,14=-4,16=1,25=1,30=1,67=1,89=1/1,2,3;
 4/5=8/1;
 6/7=3,28=1/1;
 99/5=5/99;
 Structure from the checkpoint file:  "benceno_FC_NO.chk"
 ----------
 benceno_FC
 ----------
 Charge =  0 Multiplicity = 1
 Redundant internal coordinates found in file.
 C,0,-0.000000084,1.391233,0.
 C,0,-1.2048431626,0.6956164272,0.
 C,0,1.2048430786,0.6956165728,0.
 H,0,-2.1428011898,1.2371466712,0.
 H,0,2.1428010404,1.2371469301,0.
 C,0,-1.2048430786,-0.6956165728,0.
 C,0,1.2048431626,-0.6956164272,0.
 H,0,-2.1428010404,-1.2371469301,0.
 H,0,2.1428011898,-1.2371466712,0.
 C,0,0.000000084,-1.391233,0.
 H,0,0.0000001495,-2.4742936013,0.
 H,0,-0.0000001495,2.4742936013,0.
 Recover connectivity data from disk.
                          Input orientation:                          
 ---------------------------------------------------------------------
 Center     Atomic      Atomic             Coordinates (Angstroms)
 Number     Number       Type             X           Y           Z
 ---------------------------------------------------------------------
      1          6           0       -0.000000    1.391233    0.000000
      2          6           0       -1.204843    0.695616   -0.000000
      3          6           0        1.204843    0.695617    0.000000
      4          1           0       -2.142801    1.237147   -0.000000
      5          1           0        2.142801    1.237147    0.000000
      6          6           0       -1.204843   -0.695617   -0.000000
      7          6           0        1.204843   -0.695616    0.000000
      8          1           0       -2.142801   -1.237147   -0.000000
      9          1           0        2.142801   -1.237147    0.000000
     10          6           0        0.000000   -1.391233    0.000000
     11          1           0        0.000000   -2.474294    0.000000
     12          1           0       -0.000000    2.474294    0.000000
 ---------------------------------------------------------------------
                    Distance matrix (angstroms):
                    1          2          3          4          5
     1  C    0.000000
     2  C    1.391233   0.000000
     3  C    1.391233   2.409686   0.000000
     4  H    2.148334   1.083061   3.391162   0.000000
     5  H    2.148334   3.391162   1.083061   4.285602   0.000000
     6  C    2.409686   1.391233   2.782466   2.148334   3.865527
     7  C    2.409686   2.782466   1.391233   3.865527   2.148334
     8  H    3.391162   2.148334   3.865527   2.474294   4.948587
     9  H    3.391162   3.865527   2.148334   4.948587   2.474294
    10  C    2.782466   2.409686   2.409686   3.391162   3.391162
    11  H    3.865527   3.391162   3.391162   4.285602   4.285602
    12  H    1.083061   2.148334   2.148334   2.474294   2.474294
                    6          7          8          9         10
     6  C    0.000000
     7  C    2.409686   0.000000
     8  H    1.083061   3.391162   0.000000
     9  H    3.391162   1.083061   4.285602   0.000000
    10  C    1.391233   1.391233   2.148334   2.148334   0.000000
    11  H    2.148334   2.148334   2.474294   2.474294   1.083061
    12  H    3.391162   3.391162   4.285602   4.285602   3.865527
                   11         12
    11  H    0.000000
    12  H    4.948587   0.000000
 Stoichiometry    C6H6
 Framework group  D6H[3C2'(HC.CH)]
 Deg. of freedom     2
 Full point group                 D6H     NOp  24
 Largest Abelian subgroup         D2H     NOp   8
 Largest concise Abelian subgroup D2      NOp   4
                         Standard orientation:                         
 ---------------------------------------------------------------------
 Center     Atomic      Atomic             Coordinates (Angstroms)
 Number     Number       Type             X           Y           Z
 ---------------------------------------------------------------------
      1          6           0       -0.000000    1.391233    0.000000
      2          6           0       -1.204843    0.695616   -0.000000
      3          6           0        1.204843    0.695616   -0.000000
      4          1           0       -2.142801    1.237147    0.000000
      5          1           0        2.142801    1.237147    0.000000
      6          6           0       -1.204843   -0.695616   -0.000000
      7          6           0        1.204843   -0.695616   -0.000000
      8          1           0       -2.142801   -1.237147    0.000000
      9          1           0        2.142801   -1.237147    0.000000
     10          6           0        0.000000   -1.391233   -0.000000
     11          1           0        0.000000   -2.474294    0.000000
     12          1           0       -0.000000    2.474294    0.000000
 ---------------------------------------------------------------------
 Rotational constants (GHZ):      5.7306252      5.7306252      2.8653126
 Basis read from chk: "benceno_FC_NO.chk" (5D, 7F)
 Pseudo-potential data read from chk file.
 There are    51 symmetry adapted cartesian basis functions of AG  symmetry.
 There are    39 symmetry adapted cartesian basis functions of B1G symmetry.
 There are    15 symmetry adapted cartesian basis functions of B2G symmetry.
 There are    21 symmetry adapted cartesian basis functions of B3G symmetry.
 There are    15 symmetry adapted cartesian basis functions of AU  symmetry.
 There are    21 symmetry adapted cartesian basis functions of B1U symmetry.
 There are    51 symmetry adapted cartesian basis functions of B2U symmetry.
 There are    39 symmetry adapted cartesian basis functions of B3U symmetry.
 There are    44 symmetry adapted basis functions of AG  symmetry.
 There are    34 symmetry adapted basis functions of B1G symmetry.
 There are    14 symmetry adapted basis functions of B2G symmetry.
 There are    19 symmetry adapted basis functions of B3G symmetry.
 There are    14 symmetry adapted basis functions of AU  symmetry.
 There are    19 symmetry adapted basis functions of B1U symmetry.
 There are    44 symmetry adapted basis functions of B2U symmetry.
 There are    34 symmetry adapted basis functions of B3U symmetry.
   222 basis functions,   354 primitive gaussians,   252 cartesian basis functions
    21 alpha electrons       21 beta electrons
       nuclear repulsion energy       203.9661241995 Hartrees.
 NAtoms=   12 NActive=   12 NUniq=    2 SFac= 4.00D+00 NAtFMM=   60 NAOKFM=F Big=F
 Integral buffers will be    131072 words long.
 Raffenetti 1 integral format.
 Two-electron integral symmetry is turned on.
 One-electron integrals computed using PRISM.
  24 Symmetry operations used in ECPInt.
 ECPInt:  NShTT=    4095 NPrTT=   12396 LenC2=    4075 LenP2D=   10419.
 LDataN:  DoStor=T MaxTD1= 6 Len=  172
 NBasis=   222 RedAO= T EigKep=  8.51D-06  NBF=    44    34    14    19    14    19    44    34
 NBsUse=   222 1.00D-06 EigRej= -1.00D+00 NBFU=    44    34    14    19    14    19    44    34
 Initial guess from the checkpoint file:  "benceno_FC_NO.chk"
 B after Tr=     0.000000    0.000000   -0.000000
         Rot=    1.000000    0.000000    0.000000    0.000000 Ang=   0.00 deg.
 Initial guess natural orbitals from previous density.
 Initial guess orbital symmetries:
       Occupied  (B2G) (?A) (?B) (?B) (?B) (?A) (?A) (?B) (?A)
                 (?A) (?B) (?A) (?B) (?B) (?A) (?A) (?B) (?B) (?A)
                 (?C) (?C)
       Virtual   (B2G) (B2G) (?B) (?A) (?A) (?B) (?B) (?A) (?A)
                 (?B) (?A) (?B) (?B) (B2G) (B2G) (?C) (?B) (?A)
                 (?A) (?A) (?C) (?B) (?B) (?A) (?B) (?B) (?A) (?A)
                 (?B) (?A) (?A) (?A) (?A) (?A) (?A) (?A) (?A) (?A)
                 (?A) (?A) (?A) (?A) (?A) (?B) (?A) (?C) (?A) (?B)
                 (?A) (?B) (?B) (?B) (?A) (B2G) (?A) (B2G) (B2G)
                 (?B) (?C) (?A) (?A) (?B) (?A) (?B) (?C) (B2G)
                 (?B) (?B) (?B) (B2G) (?C) (?C) (?A) (?A) (?A)
                 (?A) (?C) (B2G) (?B) (?C) (?A) (?A) (?A) (?B)
                 (?C) (?C) (?C) (?A) (?C) (?B) (?B) (?B) (?C) (?B)
                 (?C) (?B) (?B) (?A) (?B) (?C) (?B) (?B) (?B) (?C)
                 (B2G) (?B) (?B) (B2G) (B2G) (?B) (?B) (?A) (?C)
                 (B2G) (B2G) (?B) (?B) (B2G) (?C) (?B) (?A) (B2G)
                 (?A) (?B) (B2G) (B2G) (?C) (?B) (?A) (B2G) (?A)
                 (B2G) (?C) (B2G) (?B) (?A) (?C) (?B) (B2G) (?B)
                 (B2G) (?B) (?B) (B2G) (?B) (?A) (?B) (?B) (B2G)
                 (?B) (B2G) (B2G) (B2G) (?C) (?B) (?A) (?A) (?C)
                 (?A) (?A) (B2G) (?B) (?A) (?B) (?A) (?A) (?A)
                 (?B) (?A) (?A) (?B) (?B) (?A) (?B) (?A) (?A) (?A)
                 (?B) (?B) (?A) (?B) (?A) (?A) (?B) (?B) (?A) (?B)
                 (?B) (?B) (B2G) (?C) (?A) (?A) (?C) (?B) (?C)
                 (?C) (?C) (?C) (?C) (B2G)

 **********************************************************************

            Population analysis using the SCF density.

 **********************************************************************

 Orbital symmetries:
       Occupied  (B2G) (?A) (?B) (?B) (?B) (?A) (?A) (?B) (?A)
                 (?A) (?B) (?A) (?B) (?B) (?A) (?A) (?B) (?B) (?A)
                 (?C) (?C)
       Virtual   (B2G) (B2G) (?B) (?A) (?A) (?B) (?B) (?A) (?A)
                 (?B) (?A) (?B) (?B) (B2G) (B2G) (?C) (?B) (?A)
                 (?A) (?A) (?C) (?B) (?B) (?A) (?B) (?B) (?A) (?A)
                 (?B) (?A) (?A) (?A) (?A) (?A) (?A) (?A) (?A) (?A)
                 (?A) (?A) (?A) (?A) (?A) (?B) (?A) (?C) (?A) (?B)
                 (?A) (?B) (?B) (?B) (?A) (B2G) (?A) (B2G) (B2G)
                 (?B) (?C) (?A) (?A) (?B) (?A) (?B) (?C) (B2G)
                 (?B) (?B) (?B) (B2G) (?C) (?C) (?A) (?A) (?A)
                 (?A) (?C) (B2G) (?B) (?C) (?A) (?A) (?A) (?B)
                 (?C) (?C) (?C) (?A) (?C) (?B) (?B) (?B) (?C) (?B)
                 (?C) (?B) (?B) (?A) (?B) (?C) (?B) (?B) (?B) (?C)
                 (B2G) (?B) (?B) (B2G) (B2G) (?B) (?B) (?A) (?C)
                 (B2G) (B2G) (?B) (?B) (B2G) (?C) (?B) (?A) (B2G)
                 (?A) (?B) (B2G) (B2G) (?C) (?B) (?A) (B2G) (?A)
                 (B2G) (?C) (B2G) (?B) (?A) (?C) (?B) (B2G) (?B)
                 (B2G) (?B) (?B) (B2G) (?B) (?A) (?B) (?B) (B2G)
                 (?B) (B2G) (B2G) (B2G) (?C) (?B) (?A) (?A) (?C)
                 (?A) (?A) (B2G) (?B) (?A) (?B) (?A) (?A) (?A)
                 (?B) (?A) (?A) (?B) (?B) (?A) (?B) (?A) (?A) (?A)
                 (?B) (?B) (?A) (?B) (?A) (?A) (?B) (?B) (?A) (?B)
                 (?B) (?B) (B2G) (?C) (?A) (?A) (?C) (?B) (?C)
                 (?C) (?C) (?C) (?C) (B2G)
 Unable to determine electronic state:  partially filled degenerate orbitals.
 Alpha  occ. eigenvalues --    2.00002   2.00000   2.00000   2.00000   2.00000
 Alpha  occ. eigenvalues --    2.00000   2.00000   2.00000   1.99996   1.99996
 Alpha  occ. eigenvalues --    1.99992   1.99988   1.99987   1.99987   1.99979
 Alpha  occ. eigenvalues --    1.99979   1.99973   1.99973   1.99937   1.50034
 Alpha  occ. eigenvalues --    1.50033
 Alpha virt. eigenvalues --    0.49969   0.49968   0.00062   0.00028   0.00028
 Alpha virt. eigenvalues --    0.00023   0.00023   0.00015   0.00015   0.00013
 Alpha virt. eigenvalues --    0.00011   0.00005   0.00005   0.00002   0.00002
 Alpha virt. eigenvalues --    0.00001   0.00001   0.00000   0.00000   0.00000
 Alpha virt. eigenvalues --    0.00000   0.00000   0.00000   0.00000   0.00000
 Alpha virt. eigenvalues --    0.00000   0.00000   0.00000   0.00000   0.00000
 Alpha virt. eigenvalues --    0.00000   0.00000   0.00000   0.00000   0.00000
 Alpha virt. eigenvalues --    0.00000   0.00000   0.00000   0.00000   0.00000
 Alpha virt. eigenvalues --    0.00000   0.00000   0.00000   0.00000   0.00000
 Alpha virt. eigenvalues --    0.00000   0.00000   0.00000   0.00000   0.00000
 Alpha virt. eigenvalues --    0.00000   0.00000   0.00000   0.00000   0.00000
 Alpha virt. eigenvalues --    0.00000   0.00000   0.00000   0.00000   0.00000
 Alpha virt. eigenvalues --    0.00000   0.00000   0.00000   0.00000   0.00000
 Alpha virt. eigenvalues --    0.00000   0.00000   0.00000   0.00000   0.00000
 Alpha virt. eigenvalues --    0.00000   0.00000   0.00000   0.00000   0.00000
 Alpha virt. eigenvalues --    0.00000   0.00000   0.00000   0.00000   0.00000
 Alpha virt. eigenvalues --    0.00000   0.00000   0.00000   0.00000   0.00000
 Alpha virt. eigenvalues --    0.00000   0.00000   0.00000   0.00000   0.00000
 Alpha virt. eigenvalues --    0.00000   0.00000   0.00000   0.00000   0.00000
 Alpha virt. eigenvalues --    0.00000   0.00000   0.00000   0.00000   0.00000
 Alpha virt. eigenvalues --    0.00000   0.00000   0.00000   0.00000   0.00000
 Alpha virt. eigenvalues --    0.00000   0.00000  -0.00000  -0.00000  -0.00000
 Alpha virt. eigenvalues --   -0.00000  -0.00000  -0.00000  -0.00000  -0.00000
 Alpha virt. eigenvalues --   -0.00000  -0.00000  -0.00000  -0.00000  -0.00000
 Alpha virt. eigenvalues --   -0.00000  -0.00000  -0.00000  -0.00000  -0.00000
 Alpha virt. eigenvalues --   -0.00000  -0.00000  -0.00000  -0.00000  -0.00000
 Alpha virt. eigenvalues --   -0.00000  -0.00000  -0.00000  -0.00000  -0.00000
 Alpha virt. eigenvalues --   -0.00000  -0.00000  -0.00000  -0.00000  -0.00000
 Alpha virt. eigenvalues --   -0.00000  -0.00000  -0.00000  -0.00000  -0.00000
 Alpha virt. eigenvalues --   -0.00000  -0.00000  -0.00000  -0.00000  -0.00000
 Alpha virt. eigenvalues --   -0.00000  -0.00000  -0.00000  -0.00000  -0.00000
 Alpha virt. eigenvalues --   -0.00000  -0.00000  -0.00000  -0.00000  -0.00000
 Alpha virt. eigenvalues --   -0.00000  -0.00000  -0.00000  -0.00000  -0.00000
 Alpha virt. eigenvalues --   -0.00000  -0.00000  -0.00000  -0.00000  -0.00000
 Alpha virt. eigenvalues --   -0.00000  -0.00000  -0.00000  -0.00000  -0.00000
 Alpha virt. eigenvalues --   -0.00000  -0.00000  -0.00000  -0.00000  -0.00000
 Alpha virt. eigenvalues --   -0.00000  -0.00000  -0.00000  -0.00000  -0.00000
 Alpha virt. eigenvalues --   -0.00000  -0.00000  -0.00000  -0.00000  -0.00000
 Alpha virt. eigenvalues --   -0.00000  -0.00000  -0.00001  -0.00002  -0.00002
 Alpha virt. eigenvalues --   -0.00002  -0.00004  -0.00004  -0.00004  -0.00004
 Alpha virt. eigenvalues --   -0.00004
     Molecular Orbital Coefficients:
                           1         2         3         4         5
                       (B2G)--O      O         O         O         O
     Eigenvalues --     2.00002   2.00000   2.00000   2.00000   2.00000
   1 1   C  1S          0.00000   0.19131   0.00000   0.27025  -0.18732
   2        2S          0.00000   0.24977   0.00000   0.35278  -0.24227
   3        3S          0.00000   0.01418   0.00000   0.01979  -0.02411
   4        4S          0.00000  -0.01801   0.00000  -0.01270  -0.00291
   5        5S          0.00000   0.03520   0.00000   0.02260  -0.00308
   6        6PX         0.00000   0.00000   0.00069   0.00000   0.00000
   7        6PY         0.00000  -0.00315   0.00000  -0.00251  -0.00222
   8        6PZ         0.16223   0.00000   0.00000   0.00000   0.00000
   9        7PX         0.00000   0.00000   0.00293   0.00000   0.00000
  10        7PY         0.00000   0.00194   0.00000  -0.00278  -0.00502
  11        7PZ         0.13804   0.00000   0.00000   0.00000   0.00000
  12        8PX         0.00000   0.00000   0.00280   0.00000   0.00000
  13        8PY         0.00000  -0.00826   0.00000  -0.00520  -0.00046
  14        8PZ         0.05856   0.00000   0.00000   0.00000   0.00000
  15        9D 0        0.00000  -0.00073   0.00000  -0.00093   0.00058
  16        9D+1        0.00000   0.00000   0.00000   0.00000   0.00000
  17        9D-1       -0.00618   0.00000   0.00000   0.00000   0.00000
  18        9D+2        0.00000   0.00048   0.00000   0.00037  -0.00008
  19        9D-2        0.00000   0.00000  -0.00032   0.00000   0.00000
  20       10D 0        0.00000  -0.00008   0.00000  -0.00016   0.00032
  21       10D+1        0.00000   0.00000   0.00000   0.00000   0.00000
  22       10D-1       -0.00982   0.00000   0.00000   0.00000   0.00000
  23       10D+2        0.00000   0.00221   0.00000   0.00062   0.00163
  24       10D-2        0.00000   0.00000  -0.00250   0.00000   0.00000
  25       11F 0       -0.00477   0.00000   0.00000   0.00000   0.00000
  26       11F+1        0.00000   0.00000  -0.00063   0.00000   0.00000
  27       11F-1        0.00000   0.00002   0.00000  -0.00001   0.00049
  28       11F+2        0.00042   0.00000   0.00000   0.00000   0.00000
  29       11F-2        0.00000   0.00000   0.00000   0.00000   0.00000
  30       11F+3        0.00000   0.00000   0.00015   0.00000   0.00000
  31       11F-3        0.00000  -0.00141   0.00000  -0.00118   0.00009
  32 2   C  1S          0.00000  -0.19131   0.23404  -0.13513  -0.18731
  33        2S          0.00000  -0.24977   0.30552  -0.17640  -0.24226
  34        3S          0.00000  -0.01418   0.01714  -0.00990  -0.02411
  35        4S          0.00000   0.01801  -0.01100   0.00635  -0.00291
  36        5S          0.00000  -0.03520   0.01958  -0.01130  -0.00308
  37        6PX         0.00000  -0.00273   0.00171  -0.00139   0.00192
  38        6PY         0.00000   0.00157  -0.00139   0.00011  -0.00111
  39        6PZ         0.16223   0.00000   0.00000   0.00000   0.00000
  40        7PX         0.00000   0.00168   0.00135  -0.00247   0.00435
  41        7PY         0.00000  -0.00097  -0.00247  -0.00150  -0.00251
  42        7PZ         0.13805   0.00000   0.00000   0.00000   0.00000
  43        8PX         0.00000  -0.00715   0.00320  -0.00346   0.00040
  44        8PY         0.00000   0.00413  -0.00346  -0.00080  -0.00023
  45        8PZ         0.05855   0.00000   0.00000   0.00000   0.00000
  46        9D 0        0.00000   0.00073  -0.00081   0.00047   0.00058
  47        9D+1        0.00535   0.00000   0.00000   0.00000   0.00000
  48        9D-1       -0.00309   0.00000   0.00000   0.00000   0.00000
  49        9D+2        0.00000   0.00024  -0.00030  -0.00014   0.00004
  50        9D-2        0.00000  -0.00042   0.00020  -0.00030  -0.00007
  51       10D 0        0.00000   0.00008  -0.00014   0.00008   0.00032
  52       10D+1        0.00850   0.00000   0.00000   0.00000   0.00000
  53       10D-1       -0.00491   0.00000   0.00000   0.00000   0.00000
  54       10D+2        0.00000   0.00111  -0.00135  -0.00172  -0.00082
  55       10D-2        0.00000  -0.00192  -0.00016  -0.00135   0.00141
  56       11F 0       -0.00477   0.00000   0.00000   0.00000   0.00000
  57       11F+1        0.00000   0.00002   0.00016   0.00027  -0.00042
  58       11F-1        0.00000  -0.00001   0.00027   0.00047   0.00024
  59       11F+2       -0.00021   0.00000   0.00000   0.00000   0.00000
  60       11F-2        0.00036   0.00000   0.00000   0.00000   0.00000
  61       11F+3        0.00000  -0.00000   0.00007   0.00013  -0.00000
  62       11F-3        0.00000  -0.00141   0.00103  -0.00059  -0.00009
  63 3   C  1S          0.00000  -0.19131  -0.23404  -0.13513  -0.18731
  64        2S          0.00000  -0.24977  -0.30552  -0.17640  -0.24226
  65        3S          0.00000  -0.01418  -0.01714  -0.00990  -0.02411
  66        4S          0.00000   0.01801   0.01100   0.00635  -0.00291
  67        5S          0.00000  -0.03520  -0.01958  -0.01130  -0.00308
  68        6PX         0.00000   0.00273   0.00171   0.00139  -0.00192
  69        6PY         0.00000   0.00157   0.00139   0.00011  -0.00111
  70        6PZ         0.16223   0.00000   0.00000   0.00000   0.00000
  71        7PX         0.00000  -0.00168   0.00135   0.00247  -0.00435
  72        7PY         0.00000  -0.00097   0.00247  -0.00150  -0.00251
  73        7PZ         0.13805   0.00000   0.00000   0.00000   0.00000
  74        8PX         0.00000   0.00715   0.00320   0.00346  -0.00040
  75        8PY         0.00000   0.00413   0.00346  -0.00080  -0.00023
  76        8PZ         0.05855   0.00000   0.00000   0.00000   0.00000
  77        9D 0        0.00000   0.00073   0.00081   0.00047   0.00058
  78        9D+1       -0.00535   0.00000   0.00000   0.00000   0.00000
  79        9D-1       -0.00309   0.00000   0.00000   0.00000   0.00000
  80        9D+2        0.00000   0.00024   0.00030  -0.00014   0.00004
  81        9D-2        0.00000   0.00042   0.00020   0.00030   0.00007
  82       10D 0        0.00000   0.00008   0.00014   0.00008   0.00032
  83       10D+1       -0.00850   0.00000   0.00000   0.00000   0.00000
  84       10D-1       -0.00491   0.00000   0.00000   0.00000   0.00000
  85       10D+2        0.00000   0.00111   0.00135  -0.00172  -0.00082
  86       10D-2        0.00000   0.00192  -0.00016   0.00135  -0.00141
  87       11F 0       -0.00477   0.00000   0.00000   0.00000   0.00000
  88       11F+1        0.00000  -0.00002   0.00016  -0.00027   0.00042
  89       11F-1        0.00000  -0.00001  -0.00027   0.00047   0.00024
  90       11F+2       -0.00021   0.00000   0.00000   0.00000   0.00000
  91       11F-2       -0.00036   0.00000   0.00000   0.00000   0.00000
  92       11F+3        0.00000   0.00000   0.00007  -0.00013   0.00000
  93       11F-3        0.00000  -0.00141  -0.00103  -0.00059  -0.00009
  94 4   H  1S          0.00000   0.00271  -0.00205   0.00118  -0.00314
  95        2S          0.00000   0.00312  -0.00190   0.00110  -0.00124
  96        3S          0.00000   0.00267  -0.00188   0.00109  -0.00141
  97        4PX         0.00000   0.00107  -0.00108   0.00034   0.00073
  98        4PY         0.00000  -0.00062   0.00034  -0.00068  -0.00042
  99        4PZ         0.00623   0.00000   0.00000   0.00000   0.00000
 100 5   H  1S          0.00000   0.00271   0.00205   0.00118  -0.00314
 101        2S          0.00000   0.00312   0.00190   0.00110  -0.00124
 102        3S          0.00000   0.00267   0.00188   0.00109  -0.00141
 103        4PX         0.00000  -0.00107  -0.00108  -0.00034  -0.00073
 104        4PY         0.00000  -0.00062  -0.00034  -0.00068  -0.00042
 105        4PZ         0.00623   0.00000   0.00000   0.00000   0.00000
 106 6   C  1S          0.00000   0.19131  -0.23404  -0.13513  -0.18731
 107        2S          0.00000   0.24977  -0.30552  -0.17640  -0.24226
 108        3S          0.00000   0.01418  -0.01714  -0.00990  -0.02411
 109        4S          0.00000  -0.01801   0.01100   0.00635  -0.00291
 110        5S          0.00000   0.03520  -0.01958  -0.01130  -0.00308
 111        6PX         0.00000   0.00273  -0.00171  -0.00139   0.00192
 112        6PY         0.00000   0.00157  -0.00139  -0.00011   0.00111
 113        6PZ         0.16223   0.00000   0.00000   0.00000   0.00000
 114        7PX         0.00000  -0.00168  -0.00135  -0.00247   0.00435
 115        7PY         0.00000  -0.00097  -0.00247   0.00150   0.00251
 116        7PZ         0.13805   0.00000   0.00000   0.00000   0.00000
 117        8PX         0.00000   0.00715  -0.00320  -0.00346   0.00040
 118        8PY         0.00000   0.00413  -0.00346   0.00080   0.00023
 119        8PZ         0.05855   0.00000   0.00000   0.00000   0.00000
 120        9D 0        0.00000  -0.00073   0.00081   0.00047   0.00058
 121        9D+1        0.00535   0.00000   0.00000   0.00000   0.00000
 122        9D-1        0.00309   0.00000   0.00000   0.00000   0.00000
 123        9D+2        0.00000  -0.00024   0.00030  -0.00014   0.00004
 124        9D-2        0.00000  -0.00042   0.00020   0.00030   0.00007
 125       10D 0        0.00000  -0.00008   0.00014   0.00008   0.00032
 126       10D+1        0.00850   0.00000   0.00000   0.00000   0.00000
 127       10D-1        0.00491   0.00000   0.00000   0.00000   0.00000
 128       10D+2        0.00000  -0.00111   0.00135  -0.00172  -0.00082
 129       10D-2        0.00000  -0.00192  -0.00016   0.00135  -0.00141
 130       11F 0       -0.00477   0.00000   0.00000   0.00000   0.00000
 131       11F+1        0.00000  -0.00002  -0.00016   0.00027  -0.00042
 132       11F-1        0.00000  -0.00001   0.00027  -0.00047  -0.00024
 133       11F+2       -0.00021   0.00000   0.00000   0.00000   0.00000
 134       11F-2       -0.00036   0.00000   0.00000   0.00000   0.00000
 135       11F+3        0.00000   0.00000  -0.00007   0.00013  -0.00000
 136       11F-3        0.00000  -0.00141   0.00103   0.00059   0.00009
 137 7   C  1S          0.00000   0.19131   0.23404  -0.13513  -0.18731
 138        2S          0.00000   0.24977   0.30552  -0.17640  -0.24226
 139        3S          0.00000   0.01418   0.01714  -0.00990  -0.02411
 140        4S          0.00000  -0.01801  -0.01100   0.00635  -0.00291
 141        5S          0.00000   0.03520   0.01958  -0.01130  -0.00308
 142        6PX         0.00000  -0.00273  -0.00171   0.00139  -0.00192
 143        6PY         0.00000   0.00157   0.00139  -0.00011   0.00111
 144        6PZ         0.16223   0.00000   0.00000   0.00000   0.00000
 145        7PX         0.00000   0.00168  -0.00135   0.00247  -0.00435
 146        7PY         0.00000  -0.00097   0.00247   0.00150   0.00251
 147        7PZ         0.13805   0.00000   0.00000   0.00000   0.00000
 148        8PX         0.00000  -0.00715  -0.00320   0.00346  -0.00040
 149        8PY         0.00000   0.00413   0.00346   0.00080   0.00023
 150        8PZ         0.05855   0.00000   0.00000   0.00000   0.00000
 151        9D 0        0.00000  -0.00073  -0.00081   0.00047   0.00058
 152        9D+1       -0.00535   0.00000   0.00000   0.00000   0.00000
 153        9D-1        0.00309   0.00000   0.00000   0.00000   0.00000
 154        9D+2        0.00000  -0.00024  -0.00030  -0.00014   0.00004
 155        9D-2        0.00000   0.00042   0.00020  -0.00030  -0.00007
 156       10D 0        0.00000  -0.00008  -0.00014   0.00008   0.00032
 157       10D+1       -0.00850   0.00000   0.00000   0.00000   0.00000
 158       10D-1        0.00491   0.00000   0.00000   0.00000   0.00000
 159       10D+2        0.00000  -0.00111  -0.00135  -0.00172  -0.00082
 160       10D-2        0.00000   0.00192  -0.00016  -0.00135   0.00141
 161       11F 0       -0.00477   0.00000   0.00000   0.00000   0.00000
 162       11F+1        0.00000   0.00002  -0.00016  -0.00027   0.00042
 163       11F-1        0.00000  -0.00001  -0.00027  -0.00047  -0.00024
 164       11F+2       -0.00021   0.00000   0.00000   0.00000   0.00000
 165       11F-2        0.00036   0.00000   0.00000   0.00000   0.00000
 166       11F+3        0.00000  -0.00000  -0.00007  -0.00013   0.00000
 167       11F-3        0.00000  -0.00141  -0.00103   0.00059   0.00009
 168 8   H  1S          0.00000  -0.00271   0.00205   0.00118  -0.00314
 169        2S          0.00000  -0.00312   0.00190   0.00110  -0.00124
 170        3S          0.00000  -0.00267   0.00188   0.00109  -0.00141
 171        4PX         0.00000  -0.00107   0.00108   0.00034   0.00073
 172        4PY         0.00000  -0.00062   0.00034   0.00068   0.00042
 173        4PZ         0.00623   0.00000   0.00000   0.00000   0.00000
 174 9   H  1S          0.00000  -0.00271  -0.00205   0.00118  -0.00314
 175        2S          0.00000  -0.00312  -0.00190   0.00110  -0.00124
 176        3S          0.00000  -0.00267  -0.00188   0.00109  -0.00141
 177        4PX         0.00000   0.00107   0.00108  -0.00034  -0.00073
 178        4PY         0.00000  -0.00062  -0.00034   0.00068   0.00042
 179        4PZ         0.00623   0.00000   0.00000   0.00000   0.00000
 180 10  C  1S          0.00000  -0.19131   0.00000   0.27025  -0.18732
 181        2S          0.00000  -0.24977   0.00000   0.35278  -0.24227
 182        3S          0.00000  -0.01418   0.00000   0.01979  -0.02411
 183        4S          0.00000   0.01801   0.00000  -0.01270  -0.00291
 184        5S          0.00000  -0.03520   0.00000   0.02260  -0.00308
 185        6PX         0.00000   0.00000  -0.00069   0.00000   0.00000
 186        6PY         0.00000  -0.00315   0.00000   0.00251   0.00222
 187        6PZ         0.16223   0.00000   0.00000   0.00000   0.00000
 188        7PX         0.00000   0.00000  -0.00293   0.00000   0.00000
 189        7PY         0.00000   0.00194   0.00000   0.00278   0.00502
 190        7PZ         0.13804   0.00000   0.00000   0.00000   0.00000
 191        8PX         0.00000   0.00000  -0.00280   0.00000   0.00000
 192        8PY         0.00000  -0.00826   0.00000   0.00520   0.00046
 193        8PZ         0.05856   0.00000   0.00000   0.00000   0.00000
 194        9D 0        0.00000   0.00073   0.00000  -0.00093   0.00058
 195        9D+1        0.00000   0.00000   0.00000   0.00000   0.00000
 196        9D-1        0.00618   0.00000   0.00000   0.00000   0.00000
 197        9D+2        0.00000  -0.00048   0.00000   0.00037  -0.00008
 198        9D-2        0.00000   0.00000  -0.00032   0.00000   0.00000
 199       10D 0        0.00000   0.00008   0.00000  -0.00016   0.00032
 200       10D+1        0.00000   0.00000   0.00000   0.00000   0.00000
 201       10D-1        0.00982   0.00000   0.00000   0.00000   0.00000
 202       10D+2        0.00000  -0.00221   0.00000   0.00062   0.00163
 203       10D-2        0.00000   0.00000  -0.00250   0.00000   0.00000
 204       11F 0       -0.00477   0.00000   0.00000   0.00000   0.00000
 205       11F+1        0.00000   0.00000   0.00063   0.00000   0.00000
 206       11F-1        0.00000   0.00002   0.00000   0.00001  -0.00049
 207       11F+2        0.00042   0.00000   0.00000   0.00000   0.00000
 208       11F-2        0.00000   0.00000   0.00000   0.00000   0.00000
 209       11F+3        0.00000   0.00000  -0.00015   0.00000   0.00000
 210       11F-3        0.00000  -0.00141   0.00000   0.00118  -0.00009
 211 11  H  1S          0.00000   0.00271   0.00000  -0.00236  -0.00314
 212        2S          0.00000   0.00312   0.00000  -0.00219  -0.00124
 213        3S          0.00000   0.00267   0.00000  -0.00217  -0.00141
 214        4PX         0.00000   0.00000  -0.00048   0.00000   0.00000
 215        4PY         0.00000   0.00123   0.00000  -0.00127   0.00084
 216        4PZ         0.00623   0.00000   0.00000   0.00000   0.00000
 217 12  H  1S          0.00000  -0.00271   0.00000  -0.00236  -0.00314
 218        2S          0.00000  -0.00312   0.00000  -0.00219  -0.00124
 219        3S          0.00000  -0.00267   0.00000  -0.00217  -0.00141
 220        4PX         0.00000   0.00000   0.00048   0.00000   0.00000
 221        4PY         0.00000   0.00123   0.00000   0.00127  -0.00084
 222        4PZ         0.00623   0.00000   0.00000   0.00000   0.00000
                           6         7         8         9        10
                           O         O         O         O         O
     Eigenvalues --     2.00000   2.00000   2.00000   1.99996   1.99996
   1 1   C  1S          0.00000  -0.27100  -0.05705   0.00000  -0.05651
   2        2S          0.00000  -0.35456  -0.11013   0.00000  -0.12531
   3        3S          0.00000  -0.01656   0.14454   0.00000   0.21384
   4        4S          0.00000  -0.00399   0.13170   0.00000   0.20127
   5        5S          0.00000  -0.00529   0.02416   0.00000   0.03477
   6        6PX         0.00164   0.00000   0.00000   0.10073   0.00000
   7        6PY         0.00000  -0.00140  -0.00477   0.00000  -0.09686
   8        6PZ         0.00000   0.00000   0.00000   0.00000   0.00000
   9        7PX         0.02365   0.00000   0.00000   0.05848   0.00000
  10        7PY         0.00000   0.00582  -0.00237   0.00000  -0.06097
  11        7PZ         0.00000   0.00000   0.00000   0.00000   0.00000
  12        8PX         0.00314   0.00000   0.00000   0.01394   0.00000
  13        8PY         0.00000  -0.00007   0.00776   0.00000  -0.02143
  14        8PZ         0.00000   0.00000   0.00000   0.00000   0.00000
  15        9D 0        0.00000   0.00069  -0.00571   0.00000  -0.00734
  16        9D+1        0.00000   0.00000   0.00000   0.00000   0.00000
  17        9D-1        0.00000   0.00000   0.00000   0.00000   0.00000
  18        9D+2        0.00000  -0.00001   0.00118   0.00000   0.00562
  19        9D-2       -0.00057   0.00000   0.00000  -0.00972   0.00000
  20       10D 0        0.00000   0.00078  -0.00551   0.00000  -0.00670
  21       10D+1        0.00000   0.00000   0.00000   0.00000   0.00000
  22       10D-1        0.00000   0.00000   0.00000   0.00000   0.00000
  23       10D+2        0.00000  -0.00059   0.00369   0.00000   0.00453
  24       10D-2       -0.01092   0.00000   0.00000  -0.01173   0.00000
  25       11F 0        0.00000   0.00000   0.00000   0.00000   0.00000
  26       11F+1       -0.00113   0.00000   0.00000  -0.00139   0.00000
  27       11F-1        0.00000   0.00023   0.00071   0.00000   0.00107
  28       11F+2        0.00000   0.00000   0.00000   0.00000   0.00000
  29       11F-2        0.00000   0.00000   0.00000   0.00000   0.00000
  30       11F+3        0.00000   0.00000   0.00000  -0.00242   0.00000
  31       11F-3        0.00000   0.00025  -0.00272   0.00000  -0.00445
  32 2   C  1S          0.23469  -0.13550  -0.05705   0.04894  -0.02825
  33        2S          0.30706  -0.17728  -0.11013   0.10852  -0.06266
  34        3S          0.01434  -0.00828   0.14454  -0.18519   0.10692
  35        4S          0.00345  -0.00199   0.13170  -0.17430   0.10063
  36        5S          0.00458  -0.00265   0.02415  -0.03011   0.01738
  37        6PX        -0.00064   0.00132   0.00413  -0.04746   0.08556
  38        6PY         0.00132   0.00088  -0.00239   0.08556   0.05133
  39        6PZ         0.00000   0.00000   0.00000   0.00000   0.00000
  40        7PX         0.01028   0.00772   0.00205  -0.03111   0.05172
  41        7PY         0.00772   0.01919  -0.00119   0.05172   0.02862
  42        7PZ         0.00000   0.00000   0.00000   0.00000   0.00000
  43        8PX         0.00073   0.00139  -0.00673  -0.01258   0.01532
  44        8PY         0.00139   0.00234   0.00388   0.01532   0.00510
  45        8PZ         0.00000   0.00000   0.00000   0.00000   0.00000
  46        9D 0       -0.00059   0.00034  -0.00571   0.00635  -0.00367
  47        9D+1        0.00000   0.00000   0.00000   0.00000   0.00000
  48        9D-1        0.00000   0.00000   0.00000   0.00000   0.00000
  49        9D+2        0.00025   0.00043  -0.00059   0.00664   0.00588
  50        9D-2        0.00015   0.00025   0.00102  -0.00179   0.00664
  51       10D 0       -0.00067   0.00039  -0.00551   0.00580  -0.00335
  52       10D+1        0.00000   0.00000   0.00000   0.00000   0.00000
  53       10D-1        0.00000   0.00000   0.00000   0.00000   0.00000
  54       10D+2        0.00447   0.00834  -0.00185   0.00704   0.00767
  55       10D-2        0.00317   0.00447   0.00320  -0.00047   0.00705
  56       11F 0        0.00000   0.00000   0.00000   0.00000   0.00000
  57       11F+1       -0.00011  -0.00059  -0.00062   0.00046  -0.00106
  58       11F-1       -0.00059  -0.00079   0.00036  -0.00106  -0.00077
  59       11F+2        0.00000   0.00000   0.00000   0.00000   0.00000
  60       11F-2        0.00000   0.00000   0.00000   0.00000   0.00000
  61       11F+3       -0.00000  -0.00000  -0.00000   0.00121   0.00210
  62       11F-3        0.00022  -0.00013   0.00272  -0.00386   0.00223
  63 3   C  1S         -0.23469  -0.13550  -0.05705  -0.04894  -0.02825
  64        2S         -0.30706  -0.17728  -0.11013  -0.10852  -0.06266
  65        3S         -0.01434  -0.00828   0.14454   0.18519   0.10692
  66        4S         -0.00345  -0.00199   0.13170   0.17430   0.10063
  67        5S         -0.00458  -0.00265   0.02415   0.03011   0.01738
  68        6PX        -0.00064  -0.00132  -0.00413  -0.04746  -0.08556
  69        6PY        -0.00132   0.00088  -0.00239  -0.08556   0.05133
  70        6PZ         0.00000   0.00000   0.00000   0.00000   0.00000
  71        7PX         0.01028  -0.00772  -0.00205  -0.03111  -0.05172
  72        7PY        -0.00772   0.01919  -0.00119  -0.05172   0.02862
  73        7PZ         0.00000   0.00000   0.00000   0.00000   0.00000
  74        8PX         0.00073  -0.00139   0.00673  -0.01258  -0.01532
  75        8PY        -0.00139   0.00234   0.00388  -0.01532   0.00510
  76        8PZ         0.00000   0.00000   0.00000   0.00000   0.00000
  77        9D 0        0.00059   0.00034  -0.00571  -0.00635  -0.00367
  78        9D+1        0.00000   0.00000   0.00000   0.00000   0.00000
  79        9D-1        0.00000   0.00000   0.00000   0.00000   0.00000
  80        9D+2       -0.00025   0.00043  -0.00059  -0.00664   0.00588
  81        9D-2        0.00015  -0.00025  -0.00102  -0.00179  -0.00664
  82       10D 0        0.00067   0.00039  -0.00551  -0.00580  -0.00335
  83       10D+1        0.00000   0.00000   0.00000   0.00000   0.00000
  84       10D-1        0.00000   0.00000   0.00000   0.00000   0.00000
  85       10D+2       -0.00447   0.00834  -0.00185  -0.00704   0.00767
  86       10D-2        0.00317  -0.00447  -0.00320  -0.00047  -0.00705
  87       11F 0        0.00000   0.00000   0.00000   0.00000   0.00000
  88       11F+1       -0.00011   0.00059   0.00062   0.00046   0.00106
  89       11F-1        0.00059  -0.00079   0.00036   0.00106  -0.00077
  90       11F+2        0.00000   0.00000   0.00000   0.00000   0.00000
  91       11F-2        0.00000   0.00000   0.00000   0.00000   0.00000
  92       11F+3       -0.00000   0.00000   0.00000   0.00121  -0.00210
  93       11F-3       -0.00022  -0.00013   0.00272   0.00386   0.00223
  94 4   H  1S         -0.00065   0.00037   0.03928  -0.00867   0.00500
  95        2S         -0.00060   0.00034   0.04689   0.00161  -0.00093
  96        3S         -0.00053   0.00030   0.00460   0.01254  -0.00724
  97        4PX        -0.00067   0.00093   0.00569  -0.00203   0.00234
  98        4PY         0.00093   0.00040  -0.00329   0.00234   0.00068
  99        4PZ         0.00000   0.00000   0.00000   0.00000   0.00000
 100 5   H  1S          0.00065   0.00037   0.03928   0.00867   0.00500
 101        2S          0.00060   0.00034   0.04689  -0.00161  -0.00093
 102        3S          0.00053   0.00030   0.00460  -0.01254  -0.00724
 103        4PX        -0.00067  -0.00093  -0.00569  -0.00203  -0.00234
 104        4PY        -0.00093   0.00040  -0.00329  -0.00234   0.00068
 105        4PZ         0.00000   0.00000   0.00000   0.00000   0.00000
 106 6   C  1S          0.23469   0.13550  -0.05705   0.04894   0.02825
 107        2S          0.30706   0.17728  -0.11013   0.10852   0.06266
 108        3S          0.01434   0.00828   0.14454  -0.18519  -0.10692
 109        4S          0.00345   0.00199   0.13170  -0.17430  -0.10063
 110        5S          0.00458   0.00265   0.02415  -0.03011  -0.01738
 111        6PX        -0.00064  -0.00132   0.00413  -0.04746  -0.08556
 112        6PY        -0.00132   0.00088   0.00239  -0.08556   0.05133
 113        6PZ         0.00000   0.00000   0.00000   0.00000   0.00000
 114        7PX         0.01028  -0.00772   0.00205  -0.03111  -0.05172
 115        7PY        -0.00772   0.01919   0.00119  -0.05172   0.02862
 116        7PZ         0.00000   0.00000   0.00000   0.00000   0.00000
 117        8PX         0.00073  -0.00139  -0.00673  -0.01258  -0.01532
 118        8PY        -0.00139   0.00234  -0.00388  -0.01532   0.00510
 119        8PZ         0.00000   0.00000   0.00000   0.00000   0.00000
 120        9D 0       -0.00059  -0.00034  -0.00571   0.00635   0.00367
 121        9D+1        0.00000   0.00000   0.00000   0.00000   0.00000
 122        9D-1        0.00000   0.00000   0.00000   0.00000   0.00000
 123        9D+2        0.00025  -0.00043  -0.00059   0.00664  -0.00588
 124        9D-2       -0.00015   0.00025  -0.00102   0.00179   0.00664
 125       10D 0       -0.00067  -0.00039  -0.00551   0.00580   0.00335
 126       10D+1        0.00000   0.00000   0.00000   0.00000   0.00000
 127       10D-1        0.00000   0.00000   0.00000   0.00000   0.00000
 128       10D+2        0.00447  -0.00834  -0.00185   0.00704  -0.00767
 129       10D-2       -0.00317   0.00447  -0.00320   0.00047   0.00705
 130       11F 0        0.00000   0.00000   0.00000   0.00000   0.00000
 131       11F+1       -0.00011   0.00059  -0.00062   0.00046   0.00106
 132       11F-1        0.00059  -0.00079  -0.00036   0.00106  -0.00077
 133       11F+2        0.00000   0.00000   0.00000   0.00000   0.00000
 134       11F-2        0.00000   0.00000   0.00000   0.00000   0.00000
 135       11F+3       -0.00000   0.00000  -0.00000   0.00121  -0.00210
 136       11F-3       -0.00022  -0.00013  -0.00272   0.00386   0.00223
 137 7   C  1S         -0.23469   0.13550  -0.05705  -0.04894   0.02825
 138        2S         -0.30706   0.17728  -0.11013  -0.10852   0.06266
 139        3S         -0.01434   0.00828   0.14454   0.18519  -0.10692
 140        4S         -0.00345   0.00199   0.13170   0.17430  -0.10063
 141        5S         -0.00458   0.00265   0.02415   0.03011  -0.01738
 142        6PX        -0.00064   0.00132  -0.00413  -0.04746   0.08556
 143        6PY         0.00132   0.00088   0.00239   0.08556   0.05133
 144        6PZ         0.00000   0.00000   0.00000   0.00000   0.00000
 145        7PX         0.01028   0.00772  -0.00205  -0.03111   0.05172
 146        7PY         0.00772   0.01919   0.00119   0.05172   0.02862
 147        7PZ         0.00000   0.00000   0.00000   0.00000   0.00000
 148        8PX         0.00073   0.00139   0.00673  -0.01258   0.01532
 149        8PY         0.00139   0.00234  -0.00388   0.01532   0.00510
 150        8PZ         0.00000   0.00000   0.00000   0.00000   0.00000
 151        9D 0        0.00059  -0.00034  -0.00571  -0.00635   0.00367
 152        9D+1        0.00000   0.00000   0.00000   0.00000   0.00000
 153        9D-1        0.00000   0.00000   0.00000   0.00000   0.00000
 154        9D+2       -0.00025  -0.00043  -0.00059  -0.00664  -0.00588
 155        9D-2       -0.00015  -0.00025   0.00102   0.00179  -0.00664
 156       10D 0        0.00067  -0.00039  -0.00551  -0.00580   0.00335
 157       10D+1        0.00000   0.00000   0.00000   0.00000   0.00000
 158       10D-1        0.00000   0.00000   0.00000   0.00000   0.00000
 159       10D+2       -0.00447  -0.00834  -0.00185  -0.00704  -0.00767
 160       10D-2       -0.00317  -0.00447   0.00320   0.00047  -0.00705
 161       11F 0        0.00000   0.00000   0.00000   0.00000   0.00000
 162       11F+1       -0.00011  -0.00059   0.00062   0.00046  -0.00106
 163       11F-1       -0.00059  -0.00079  -0.00036  -0.00106  -0.00077
 164       11F+2        0.00000   0.00000   0.00000   0.00000   0.00000
 165       11F-2        0.00000   0.00000   0.00000   0.00000   0.00000
 166       11F+3       -0.00000  -0.00000   0.00000   0.00121   0.00210
 167       11F-3        0.00022  -0.00013  -0.00272  -0.00386   0.00223
 168 8   H  1S         -0.00065  -0.00037   0.03928  -0.00867  -0.00500
 169        2S         -0.00060  -0.00034   0.04689   0.00161   0.00093
 170        3S         -0.00053  -0.00030   0.00460   0.01254   0.00724
 171        4PX        -0.00067  -0.00093   0.00569  -0.00203  -0.00234
 172        4PY        -0.00093   0.00040   0.00329  -0.00234   0.00068
 173        4PZ         0.00000   0.00000   0.00000   0.00000   0.00000
 174 9   H  1S          0.00065  -0.00037   0.03928   0.00867  -0.00500
 175        2S          0.00060  -0.00034   0.04689  -0.00161   0.00093
 176        3S          0.00053  -0.00030   0.00460  -0.01254   0.00724
 177        4PX        -0.00067   0.00093  -0.00569  -0.00203   0.00234
 178        4PY         0.00093   0.00040   0.00329   0.00234   0.00068
 179        4PZ         0.00000   0.00000   0.00000   0.00000   0.00000
 180 10  C  1S          0.00000   0.27100  -0.05705   0.00000   0.05651
 181        2S          0.00000   0.35456  -0.11013   0.00000   0.12531
 182        3S          0.00000   0.01656   0.14454   0.00000  -0.21384
 183        4S          0.00000   0.00399   0.13170   0.00000  -0.20127
 184        5S          0.00000   0.00529   0.02416   0.00000  -0.03477
 185        6PX         0.00164   0.00000   0.00000   0.10073   0.00000
 186        6PY         0.00000  -0.00140   0.00477   0.00000  -0.09686
 187        6PZ         0.00000   0.00000   0.00000   0.00000   0.00000
 188        7PX         0.02365   0.00000   0.00000   0.05848   0.00000
 189        7PY         0.00000   0.00582   0.00237   0.00000  -0.06097
 190        7PZ         0.00000   0.00000   0.00000   0.00000   0.00000
 191        8PX         0.00314   0.00000   0.00000   0.01394   0.00000
 192        8PY         0.00000  -0.00007  -0.00776   0.00000  -0.02143
 193        8PZ         0.00000   0.00000   0.00000   0.00000   0.00000
 194        9D 0        0.00000  -0.00069  -0.00571   0.00000   0.00734
 195        9D+1        0.00000   0.00000   0.00000   0.00000   0.00000
 196        9D-1        0.00000   0.00000   0.00000   0.00000   0.00000
 197        9D+2        0.00000   0.00001   0.00118   0.00000  -0.00562
 198        9D-2        0.00057   0.00000   0.00000   0.00972   0.00000
 199       10D 0        0.00000  -0.00078  -0.00551   0.00000   0.00670
 200       10D+1        0.00000   0.00000   0.00000   0.00000   0.00000
 201       10D-1        0.00000   0.00000   0.00000   0.00000   0.00000
 202       10D+2        0.00000   0.00059   0.00369   0.00000  -0.00453
 203       10D-2        0.01092   0.00000   0.00000   0.01173   0.00000
 204       11F 0        0.00000   0.00000   0.00000   0.00000   0.00000
 205       11F+1       -0.00113   0.00000   0.00000  -0.00139   0.00000
 206       11F-1        0.00000   0.00023  -0.00071   0.00000   0.00107
 207       11F+2        0.00000   0.00000   0.00000   0.00000   0.00000
 208       11F-2        0.00000   0.00000   0.00000   0.00000   0.00000
 209       11F+3        0.00000   0.00000   0.00000  -0.00242   0.00000
 210       11F-3        0.00000   0.00025   0.00272   0.00000  -0.00445
 211 11  H  1S          0.00000  -0.00075   0.03928   0.00000  -0.01001
 212        2S          0.00000  -0.00069   0.04690   0.00000   0.00186
 213        3S          0.00000  -0.00061   0.00460   0.00000   0.01448
 214        4PX         0.00093   0.00000   0.00000   0.00203   0.00000
 215        4PY         0.00000  -0.00121   0.00658   0.00000  -0.00338
 216        4PZ         0.00000   0.00000   0.00000   0.00000   0.00000
 217 12  H  1S          0.00000   0.00075   0.03928   0.00000   0.01001
 218        2S          0.00000   0.00069   0.04690   0.00000  -0.00186
 219        3S          0.00000   0.00061   0.00460   0.00000  -0.01448
 220        4PX         0.00093   0.00000   0.00000   0.00203   0.00000
 221        4PY         0.00000  -0.00121  -0.00658   0.00000  -0.00338
 222        4PZ         0.00000   0.00000   0.00000   0.00000   0.00000
                          11        12        13        14        15
                           O         O         O         O         O
     Eigenvalues --     1.99992   1.99988   1.99987   1.99987   1.99979
   1 1   C  1S          0.00426  -0.02362   0.00000  -0.01104   0.00000
   2        2S          0.01181  -0.05509   0.00000  -0.02611   0.00000
   3        3S         -0.02653   0.10242   0.00000   0.04898   0.00000
   4        4S         -0.01810   0.12257   0.00000   0.05312   0.00000
   5        5S          0.01248   0.09006   0.00000   0.02258   0.00000
   6        6PX         0.00000   0.00000   0.13802   0.00000  -0.03048
   7        6PY         0.15570   0.09735   0.00000   0.17499   0.00000
   8        6PZ         0.00000   0.00000   0.00000   0.00000   0.00000
   9        7PX         0.00000   0.00000   0.09474   0.00000  -0.03268
  10        7PY         0.10170   0.05570   0.00000   0.11153   0.00000
  11        7PZ         0.00000   0.00000   0.00000   0.00000   0.00000
  12        8PX         0.00000   0.00000   0.05203   0.00000  -0.01235
  13        8PY         0.02459   0.01760   0.00000   0.07475   0.00000
  14        8PZ         0.00000   0.00000   0.00000   0.00000   0.00000
  15        9D 0        0.00217  -0.00202   0.00000  -0.00104   0.00000
  16        9D+1        0.00000   0.00000   0.00000   0.00000   0.00000
  17        9D-1        0.00000   0.00000   0.00000   0.00000   0.00000
  18        9D+2        0.00076  -0.00862   0.00000  -0.01516   0.00000
  19        9D-2        0.00000   0.00000  -0.00885   0.00000   0.00758
  20       10D 0        0.00155   0.00034   0.00000   0.00090   0.00000
  21       10D+1        0.00000   0.00000   0.00000   0.00000   0.00000
  22       10D-1        0.00000   0.00000   0.00000   0.00000   0.00000
  23       10D+2        0.00845  -0.00929   0.00000  -0.01318   0.00000
  24       10D-2        0.00000   0.00000  -0.00709   0.00000   0.01552
  25       11F 0        0.00000   0.00000   0.00000   0.00000   0.00000
  26       11F+1        0.00000   0.00000  -0.00062   0.00000  -0.00040
  27       11F-1       -0.00234  -0.00060   0.00000  -0.00102   0.00000
  28       11F+2        0.00000   0.00000   0.00000   0.00000   0.00000
  29       11F-2        0.00000   0.00000   0.00000   0.00000   0.00000
  30       11F+3        0.00000   0.00000  -0.00161   0.00000   0.00468
  31       11F-3        0.00027  -0.00175   0.00000  -0.00075   0.00000
  32 2   C  1S          0.00426   0.02362  -0.00956   0.00552   0.00942
  33        2S          0.01181   0.05510  -0.02262   0.01306   0.01978
  34        3S         -0.02653  -0.10243   0.04243  -0.02449  -0.02818
  35        4S         -0.01810  -0.12258   0.04602  -0.02656  -0.03949
  36        5S          0.01249  -0.09005   0.01954  -0.01129  -0.00838
  37        6PX        -0.13484   0.08431  -0.16575   0.01600   0.14691
  38        6PY         0.07785  -0.04868   0.01601  -0.14728  -0.10241
  39        6PZ         0.00000   0.00000   0.00000   0.00000   0.00000
  40        7PX        -0.08807   0.04825  -0.10733   0.00727   0.08850
  41        7PY         0.05084  -0.02785   0.00727  -0.09894  -0.06996
  42        7PZ         0.00000   0.00000   0.00000   0.00000   0.00000
  43        8PX        -0.02129   0.01524  -0.06907   0.00984   0.04555
  44        8PY         0.01229  -0.00880   0.00985  -0.05771  -0.03343
  45        8PZ         0.00000   0.00000   0.00000   0.00000   0.00000
  46        9D 0        0.00217   0.00202  -0.00090   0.00052   0.00123
  47        9D+1        0.00000   0.00000   0.00000   0.00000   0.00000
  48        9D-1        0.00000   0.00000   0.00000   0.00000   0.00000
  49        9D+2       -0.00038  -0.00431   0.00273  -0.01042  -0.00584
  50        9D-2        0.00065   0.00747  -0.01358   0.00273   0.00252
  51       10D 0        0.00155  -0.00034   0.00078  -0.00045   0.00234
  52       10D+1        0.00000   0.00000   0.00000   0.00000   0.00000
  53       10D-1        0.00000   0.00000   0.00000   0.00000   0.00000
  54       10D+2       -0.00423  -0.00464   0.00264  -0.00861  -0.00493
  55       10D-2        0.00732   0.00804  -0.01166   0.00264  -0.00697
  56       11F 0        0.00000   0.00000   0.00000   0.00000   0.00000
  57       11F+1        0.00203  -0.00052   0.00092  -0.00017  -0.00137
  58       11F-1       -0.00117   0.00030  -0.00017   0.00072   0.00056
  59       11F+2        0.00000   0.00000   0.00000   0.00000   0.00000
  60       11F-2        0.00000   0.00000   0.00000   0.00000   0.00000
  61       11F+3       -0.00000   0.00000  -0.00081  -0.00140  -0.00234
  62       11F-3       -0.00027  -0.00175   0.00065  -0.00038  -0.00030
  63 3   C  1S          0.00426   0.02362   0.00956   0.00552  -0.00942
  64        2S          0.01181   0.05510   0.02262   0.01306  -0.01978
  65        3S         -0.02653  -0.10243  -0.04243  -0.02449   0.02818
  66        4S         -0.01810  -0.12258  -0.04602  -0.02656   0.03949
  67        5S          0.01249  -0.09005  -0.01954  -0.01129   0.00838
  68        6PX         0.13484  -0.08431  -0.16575  -0.01600   0.14691
  69        6PY         0.07785  -0.04868  -0.01601  -0.14728   0.10241
  70        6PZ         0.00000   0.00000   0.00000   0.00000   0.00000
  71        7PX         0.08807  -0.04825  -0.10733  -0.00727   0.08850
  72        7PY         0.05084  -0.02785  -0.00727  -0.09894   0.06996
  73        7PZ         0.00000   0.00000   0.00000   0.00000   0.00000
  74        8PX         0.02129  -0.01524  -0.06907  -0.00984   0.04555
  75        8PY         0.01229  -0.00880  -0.00985  -0.05771   0.03343
  76        8PZ         0.00000   0.00000   0.00000   0.00000   0.00000
  77        9D 0        0.00217   0.00202   0.00090   0.00052  -0.00123
  78        9D+1        0.00000   0.00000   0.00000   0.00000   0.00000
  79        9D-1        0.00000   0.00000   0.00000   0.00000   0.00000
  80        9D+2       -0.00038  -0.00431  -0.00273  -0.01042   0.00584
  81        9D-2       -0.00065  -0.00747  -0.01358  -0.00273   0.00252
  82       10D 0        0.00155  -0.00034  -0.00078  -0.00045  -0.00234
  83       10D+1        0.00000   0.00000   0.00000   0.00000   0.00000
  84       10D-1        0.00000   0.00000   0.00000   0.00000   0.00000
  85       10D+2       -0.00423  -0.00464  -0.00264  -0.00861   0.00493
  86       10D-2       -0.00732  -0.00804  -0.01166  -0.00264  -0.00697
  87       11F 0        0.00000   0.00000   0.00000   0.00000   0.00000
  88       11F+1       -0.00203   0.00052   0.00092   0.00017  -0.00137
  89       11F-1       -0.00117   0.00030   0.00017   0.00072  -0.00056
  90       11F+2        0.00000   0.00000   0.00000   0.00000   0.00000
  91       11F-2        0.00000   0.00000   0.00000   0.00000   0.00000
  92       11F+3        0.00000  -0.00000  -0.00081   0.00140  -0.00234
  93       11F-3       -0.00027  -0.00175  -0.00065  -0.00038   0.00030
  94 4   H  1S          0.05997  -0.08651   0.10487  -0.06055  -0.09777
  95        2S          0.08193  -0.11930   0.15356  -0.08866  -0.13720
  96        3S          0.02299  -0.04019   0.07049  -0.04070  -0.04323
  97        4PX         0.00641  -0.00937   0.00887  -0.00717  -0.01021
  98        4PY        -0.00370   0.00541  -0.00717   0.00059   0.00633
  99        4PZ         0.00000   0.00000   0.00000   0.00000   0.00000
 100 5   H  1S          0.05997  -0.08651  -0.10487  -0.06055   0.09777
 101        2S          0.08193  -0.11930  -0.15356  -0.08866   0.13720
 102        3S          0.02299  -0.04019  -0.07049  -0.04070   0.04323
 103        4PX        -0.00641   0.00937   0.00887   0.00717  -0.01021
 104        4PY        -0.00370   0.00541   0.00717   0.00059  -0.00633
 105        4PZ         0.00000   0.00000   0.00000   0.00000   0.00000
 106 6   C  1S          0.00426  -0.02362   0.00956   0.00552   0.00942
 107        2S          0.01181  -0.05510   0.02262   0.01306   0.01978
 108        3S         -0.02653   0.10243  -0.04243  -0.02449  -0.02818
 109        4S         -0.01810   0.12258  -0.04602  -0.02656  -0.03949
 110        5S          0.01249   0.09005  -0.01954  -0.01129  -0.00838
 111        6PX        -0.13484  -0.08431   0.16575   0.01600   0.14691
 112        6PY        -0.07785  -0.04868   0.01601   0.14728   0.10241
 113        6PZ         0.00000   0.00000   0.00000   0.00000   0.00000
 114        7PX        -0.08807  -0.04825   0.10733   0.00727   0.08850
 115        7PY        -0.05084  -0.02785   0.00727   0.09894   0.06996
 116        7PZ         0.00000   0.00000   0.00000   0.00000   0.00000
 117        8PX        -0.02129  -0.01524   0.06907   0.00984   0.04555
 118        8PY        -0.01229  -0.00880   0.00985   0.05771   0.03343
 119        8PZ         0.00000   0.00000   0.00000   0.00000   0.00000
 120        9D 0        0.00217  -0.00202   0.00090   0.00052   0.00123
 121        9D+1        0.00000   0.00000   0.00000   0.00000   0.00000
 122        9D-1        0.00000   0.00000   0.00000   0.00000   0.00000
 123        9D+2       -0.00038   0.00431  -0.00273  -0.01042  -0.00584
 124        9D-2       -0.00065   0.00747  -0.01358  -0.00273  -0.00252
 125       10D 0        0.00155   0.00034  -0.00078  -0.00045   0.00234
 126       10D+1        0.00000   0.00000   0.00000   0.00000   0.00000
 127       10D-1        0.00000   0.00000   0.00000   0.00000   0.00000
 128       10D+2       -0.00423   0.00464  -0.00264  -0.00861  -0.00493
 129       10D-2       -0.00732   0.00804  -0.01166  -0.00264   0.00697
 130       11F 0        0.00000   0.00000   0.00000   0.00000   0.00000
 131       11F+1        0.00203   0.00052  -0.00092  -0.00017  -0.00137
 132       11F-1        0.00117   0.00030  -0.00017  -0.00072  -0.00056
 133       11F+2        0.00000   0.00000   0.00000   0.00000   0.00000
 134       11F-2        0.00000   0.00000   0.00000   0.00000   0.00000
 135       11F+3       -0.00000  -0.00000   0.00081  -0.00140  -0.00234
 136       11F-3        0.00027  -0.00175   0.00065   0.00038   0.00030
 137 7   C  1S          0.00426  -0.02362  -0.00956   0.00552  -0.00942
 138        2S          0.01181  -0.05510  -0.02262   0.01306  -0.01978
 139        3S         -0.02653   0.10243   0.04243  -0.02449   0.02818
 140        4S         -0.01810   0.12258   0.04602  -0.02656   0.03949
 141        5S          0.01249   0.09005   0.01954  -0.01129   0.00838
 142        6PX         0.13484   0.08431   0.16575  -0.01600   0.14691
 143        6PY        -0.07785  -0.04868  -0.01601   0.14728  -0.10241
 144        6PZ         0.00000   0.00000   0.00000   0.00000   0.00000
 145        7PX         0.08807   0.04825   0.10733  -0.00727   0.08850
 146        7PY        -0.05084  -0.02785  -0.00727   0.09894  -0.06996
 147        7PZ         0.00000   0.00000   0.00000   0.00000   0.00000
 148        8PX         0.02129   0.01524   0.06907  -0.00984   0.04555
 149        8PY        -0.01229  -0.00880  -0.00985   0.05771  -0.03343
 150        8PZ         0.00000   0.00000   0.00000   0.00000   0.00000
 151        9D 0        0.00217  -0.00202  -0.00090   0.00052  -0.00123
 152        9D+1        0.00000   0.00000   0.00000   0.00000   0.00000
 153        9D-1        0.00000   0.00000   0.00000   0.00000   0.00000
 154        9D+2       -0.00038   0.00431   0.00273  -0.01042   0.00584
 155        9D-2        0.00065  -0.00747  -0.01358   0.00273  -0.00252
 156       10D 0        0.00155   0.00034   0.00078  -0.00045  -0.00234
 157       10D+1        0.00000   0.00000   0.00000   0.00000   0.00000
 158       10D-1        0.00000   0.00000   0.00000   0.00000   0.00000
 159       10D+2       -0.00423   0.00464   0.00264  -0.00861   0.00493
 160       10D-2        0.00732  -0.00804  -0.01166   0.00264   0.00697
 161       11F 0        0.00000   0.00000   0.00000   0.00000   0.00000
 162       11F+1       -0.00203  -0.00052  -0.00092   0.00017  -0.00137
 163       11F-1        0.00117   0.00030   0.00017  -0.00072   0.00056
 164       11F+2        0.00000   0.00000   0.00000   0.00000   0.00000
 165       11F-2        0.00000   0.00000   0.00000   0.00000   0.00000
 166       11F+3        0.00000   0.00000   0.00081   0.00140  -0.00234
 167       11F-3        0.00027  -0.00175  -0.00065   0.00038  -0.00030
 168 8   H  1S          0.05997   0.08651  -0.10487  -0.06055  -0.09777
 169        2S          0.08193   0.11930  -0.15356  -0.08866  -0.13720
 170        3S          0.02299   0.04019  -0.07049  -0.04070  -0.04323
 171        4PX         0.00641   0.00937  -0.00887  -0.00717  -0.01021
 172        4PY         0.00370   0.00541  -0.00717  -0.00059  -0.00633
 173        4PZ         0.00000   0.00000   0.00000   0.00000   0.00000
 174 9   H  1S          0.05997   0.08651   0.10487  -0.06055   0.09777
 175        2S          0.08193   0.11930   0.15356  -0.08866   0.13720
 176        3S          0.02299   0.04019   0.07049  -0.04070   0.04323
 177        4PX        -0.00641  -0.00937  -0.00887   0.00717  -0.01021
 178        4PY         0.00370   0.00541   0.00717  -0.00059   0.00633
 179        4PZ         0.00000   0.00000   0.00000   0.00000   0.00000
 180 10  C  1S          0.00426   0.02362   0.00000  -0.01104   0.00000
 181        2S          0.01181   0.05509   0.00000  -0.02611   0.00000
 182        3S         -0.02653  -0.10242   0.00000   0.04898   0.00000
 183        4S         -0.01810  -0.12257   0.00000   0.05312   0.00000
 184        5S          0.01248  -0.09006   0.00000   0.02258   0.00000
 185        6PX         0.00000   0.00000  -0.13802   0.00000  -0.03048
 186        6PY        -0.15570   0.09735   0.00000  -0.17499   0.00000
 187        6PZ         0.00000   0.00000   0.00000   0.00000   0.00000
 188        7PX         0.00000   0.00000  -0.09474   0.00000  -0.03268
 189        7PY        -0.10170   0.05570   0.00000  -0.11153   0.00000
 190        7PZ         0.00000   0.00000   0.00000   0.00000   0.00000
 191        8PX         0.00000   0.00000  -0.05203   0.00000  -0.01235
 192        8PY        -0.02459   0.01760   0.00000  -0.07475   0.00000
 193        8PZ         0.00000   0.00000   0.00000   0.00000   0.00000
 194        9D 0        0.00217   0.00202   0.00000  -0.00104   0.00000
 195        9D+1        0.00000   0.00000   0.00000   0.00000   0.00000
 196        9D-1        0.00000   0.00000   0.00000   0.00000   0.00000
 197        9D+2        0.00076   0.00862   0.00000  -0.01516   0.00000
 198        9D-2        0.00000   0.00000  -0.00885   0.00000  -0.00758
 199       10D 0        0.00155  -0.00034   0.00000   0.00090   0.00000
 200       10D+1        0.00000   0.00000   0.00000   0.00000   0.00000
 201       10D-1        0.00000   0.00000   0.00000   0.00000   0.00000
 202       10D+2        0.00845   0.00929   0.00000  -0.01318   0.00000
 203       10D-2        0.00000   0.00000  -0.00709   0.00000  -0.01552
 204       11F 0        0.00000   0.00000   0.00000   0.00000   0.00000
 205       11F+1        0.00000   0.00000   0.00062   0.00000  -0.00040
 206       11F-1        0.00234  -0.00060   0.00000   0.00102   0.00000
 207       11F+2        0.00000   0.00000   0.00000   0.00000   0.00000
 208       11F-2        0.00000   0.00000   0.00000   0.00000   0.00000
 209       11F+3        0.00000   0.00000   0.00161   0.00000   0.00468
 210       11F-3       -0.00027  -0.00175   0.00000   0.00075   0.00000
 211 11  H  1S          0.05997  -0.08651   0.00000   0.12109   0.00000
 212        2S          0.08193  -0.11929   0.00000   0.17732   0.00000
 213        3S          0.02299  -0.04019   0.00000   0.08140   0.00000
 214        4PX         0.00000   0.00000  -0.00355   0.00000   0.00075
 215        4PY         0.00741  -0.01082   0.00000   0.01301   0.00000
 216        4PZ         0.00000   0.00000   0.00000   0.00000   0.00000
 217 12  H  1S          0.05997   0.08651   0.00000   0.12109   0.00000
 218        2S          0.08193   0.11929   0.00000   0.17732   0.00000
 219        3S          0.02299   0.04019   0.00000   0.08140   0.00000
 220        4PX         0.00000   0.00000   0.00355   0.00000   0.00075
 221        4PY        -0.00741  -0.01082   0.00000  -0.01301   0.00000
 222        4PZ         0.00000   0.00000   0.00000   0.00000   0.00000
                          16        17        18        19        20
                           O         O         O         O         O
     Eigenvalues --     1.99979   1.99973   1.99973   1.99937   1.50034
   1 1   C  1S         -0.01088  -0.04449   0.00000   0.00000   0.00000
   2        2S         -0.02284  -0.09786   0.00000   0.00000   0.00000
   3        3S          0.03255   0.16371   0.00000   0.00000   0.00000
   4        4S          0.04561   0.20293   0.00000   0.00000   0.00000
   5        5S          0.00971   0.02036   0.00000   0.00000   0.00000
   6        6PX         0.00000   0.00000   0.21280  -0.21132   0.00000
   7        6PY         0.20604  -0.01120   0.00000   0.00000   0.00000
   8        6PZ         0.00000   0.00000   0.00000   0.00000   0.00000
   9        7PX         0.00000   0.00000   0.12408  -0.13715   0.00000
  10        7PY         0.12889  -0.01737   0.00000   0.00000   0.00000
  11        7PZ         0.00000   0.00000   0.00000   0.00000   0.00000
  12        8PX         0.00000   0.00000   0.04090  -0.04458   0.00000
  13        8PY         0.06484   0.00037   0.00000   0.00000   0.00000
  14        8PZ         0.00000   0.00000   0.00000   0.00000   0.00000
  15        9D 0       -0.00141  -0.00508   0.00000   0.00000   0.00000
  16        9D+1        0.00000   0.00000   0.00000   0.00000   0.01139
  17        9D-1        0.00000   0.00000   0.00000   0.00000   0.00000
  18        9D+2       -0.00589   0.00486   0.00000   0.00000   0.00000
  19        9D-2        0.00000   0.00000  -0.01089   0.00845   0.00000
  20       10D 0       -0.00270  -0.00666   0.00000   0.00000   0.00000
  21       10D+1        0.00000   0.00000   0.00000   0.00000   0.02158
  22       10D-1        0.00000   0.00000   0.00000   0.00000   0.00000
  23       10D+2        0.00412   0.00934   0.00000   0.00000   0.00000
  24       10D-2        0.00000   0.00000  -0.00306  -0.00004   0.00000
  25       11F 0        0.00000   0.00000   0.00000   0.00000   0.00000
  26       11F+1        0.00000   0.00000  -0.00218   0.00212   0.00000
  27       11F-1       -0.00170  -0.00012   0.00000   0.00000   0.00000
  28       11F+2        0.00000   0.00000   0.00000   0.00000   0.00000
  29       11F-2        0.00000   0.00000   0.00000   0.00000  -0.00449
  30       11F+3        0.00000   0.00000   0.00108  -0.00186   0.00000
  31       11F-3       -0.00035  -0.00355   0.00000   0.00000   0.00000
  32 2   C  1S         -0.00544   0.02225   0.03853  -0.00000   0.00000
  33        2S         -0.01142   0.04893   0.08475  -0.00000   0.00000
  34        3S          0.01627  -0.08185  -0.14177   0.00000   0.00000
  35        4S          0.02280  -0.10147  -0.17574   0.00000   0.00000
  36        5S          0.00481  -0.01018  -0.01763  -0.00000   0.00000
  37        6PX        -0.10241   0.08729  -0.06161   0.10566   0.00000
  38        6PY         0.02865   0.16240  -0.08729   0.18301   0.00000
  39        6PZ         0.00000   0.00000   0.00000   0.00000  -0.21567
  40        7PX        -0.06996   0.04620  -0.04405   0.06858   0.00000
  41        7PY         0.00771   0.09740  -0.04620   0.11878   0.00000
  42        7PZ         0.00000   0.00000   0.00000   0.00000  -0.18696
  43        8PX        -0.03344   0.01787  -0.00995   0.02229   0.00000
  44        8PY         0.00695   0.03058  -0.01786   0.03861   0.00000
  45        8PZ         0.00000   0.00000   0.00000   0.00000  -0.12468
  46        9D 0       -0.00071   0.00254   0.00440  -0.00000   0.00000
  47        9D+1        0.00000   0.00000   0.00000   0.00000  -0.00059
  48        9D-1        0.00000   0.00000   0.00000   0.00000   0.00692
  49        9D+2       -0.00421   0.00938  -0.00261   0.00732   0.00000
  50        9D-2       -0.00584   0.00261  -0.00637   0.00423   0.00000
  51       10D 0       -0.00135   0.00333   0.00577  -0.00000   0.00000
  52       10D+1        0.00000   0.00000   0.00000   0.00000   0.00410
  53       10D-1        0.00000   0.00000   0.00000   0.00000   0.01009
  54       10D+2       -0.01267   0.00463   0.00272  -0.00004   0.00000
  55       10D-2       -0.00493  -0.00272  -0.00777  -0.00002   0.00000
  56       11F 0        0.00000   0.00000   0.00000   0.00000   0.00408
  57       11F+1        0.00056  -0.00099   0.00046  -0.00106   0.00000
  58       11F-1       -0.00072  -0.00161   0.00099  -0.00184   0.00000
  59       11F+2        0.00000   0.00000   0.00000   0.00000   0.00244
  60       11F-2        0.00000   0.00000   0.00000   0.00000   0.00026
  61       11F+3       -0.00405  -0.00093   0.00054  -0.00186   0.00000
  62       11F-3        0.00017  -0.00178  -0.00308   0.00000   0.00000
  63 3   C  1S         -0.00544   0.02225  -0.03853   0.00000   0.00000
  64        2S         -0.01142   0.04893  -0.08475   0.00000   0.00000
  65        3S          0.01627  -0.08185   0.14177  -0.00000   0.00000
  66        4S          0.02280  -0.10147   0.17574  -0.00000   0.00000
  67        5S          0.00481  -0.01018   0.01763   0.00000   0.00000
  68        6PX         0.10241  -0.08729  -0.06161   0.10566   0.00000
  69        6PY         0.02865   0.16240   0.08729  -0.18301   0.00000
  70        6PZ         0.00000   0.00000   0.00000   0.00000   0.21567
  71        7PX         0.06996  -0.04620  -0.04405   0.06858   0.00000
  72        7PY         0.00771   0.09740   0.04620  -0.11878   0.00000
  73        7PZ         0.00000   0.00000   0.00000   0.00000   0.18696
  74        8PX         0.03344  -0.01787  -0.00995   0.02229   0.00000
  75        8PY         0.00695   0.03058   0.01786  -0.03861   0.00000
  76        8PZ         0.00000   0.00000   0.00000   0.00000   0.12468
  77        9D 0       -0.00071   0.00254  -0.00440   0.00000   0.00000
  78        9D+1        0.00000   0.00000   0.00000   0.00000  -0.00059
  79        9D-1        0.00000   0.00000   0.00000   0.00000  -0.00692
  80        9D+2       -0.00421   0.00938   0.00261  -0.00732   0.00000
  81        9D-2        0.00584  -0.00261  -0.00637   0.00423   0.00000
  82       10D 0       -0.00135   0.00333  -0.00577   0.00000   0.00000
  83       10D+1        0.00000   0.00000   0.00000   0.00000   0.00410
  84       10D-1        0.00000   0.00000   0.00000   0.00000  -0.01009
  85       10D+2       -0.01267   0.00463  -0.00272   0.00004   0.00000
  86       10D-2        0.00493   0.00272  -0.00777  -0.00002   0.00000
  87       11F 0        0.00000   0.00000   0.00000   0.00000  -0.00408
  88       11F+1       -0.00056   0.00099   0.00046  -0.00106   0.00000
  89       11F-1       -0.00072  -0.00161  -0.00099   0.00184   0.00000
  90       11F+2        0.00000   0.00000   0.00000   0.00000  -0.00244
  91       11F-2        0.00000   0.00000   0.00000   0.00000   0.00026
  92       11F+3        0.00405   0.00093   0.00054  -0.00186   0.00000
  93       11F-3        0.00017  -0.00178   0.00308  -0.00000   0.00000
  94 4   H  1S          0.05645  -0.01636  -0.02834   0.00000   0.00000
  95        2S          0.07921  -0.01442  -0.02497   0.00000   0.00000
  96        3S          0.02495   0.00891   0.01543   0.00000   0.00000
  97        4PX         0.00633   0.00004  -0.00620   0.00347   0.00000
  98        4PY        -0.00291   0.00625  -0.00004   0.00602   0.00000
  99        4PZ         0.00000   0.00000   0.00000   0.00000  -0.00978
 100 5   H  1S          0.05645  -0.01636   0.02834  -0.00000   0.00000
 101        2S          0.07921  -0.01442   0.02497  -0.00000   0.00000
 102        3S          0.02495   0.00891  -0.01543  -0.00000   0.00000
 103        4PX        -0.00633  -0.00004  -0.00620   0.00347   0.00000
 104        4PY        -0.00291   0.00625   0.00004  -0.00602   0.00000
 105        4PZ         0.00000   0.00000   0.00000   0.00000   0.00978
 106 6   C  1S          0.00544   0.02225  -0.03853  -0.00000   0.00000
 107        2S          0.01142   0.04893  -0.08475  -0.00000   0.00000
 108        3S         -0.01627  -0.08185   0.14177   0.00000   0.00000
 109        4S         -0.02280  -0.10147   0.17574   0.00000   0.00000
 110        5S         -0.00481  -0.01018   0.01763  -0.00000   0.00000
 111        6PX         0.10241   0.08729   0.06161   0.10566   0.00000
 112        6PY         0.02865  -0.16240  -0.08729  -0.18301   0.00000
 113        6PZ         0.00000   0.00000   0.00000   0.00000  -0.21567
 114        7PX         0.06996   0.04620   0.04405   0.06858   0.00000
 115        7PY         0.00771  -0.09740  -0.04620  -0.11878   0.00000
 116        7PZ         0.00000   0.00000   0.00000   0.00000  -0.18696
 117        8PX         0.03344   0.01787   0.00995   0.02229   0.00000
 118        8PY         0.00695  -0.03058  -0.01786  -0.03861   0.00000
 119        8PZ         0.00000   0.00000   0.00000   0.00000  -0.12468
 120        9D 0        0.00071   0.00254  -0.00440  -0.00000   0.00000
 121        9D+1        0.00000   0.00000   0.00000   0.00000  -0.00059
 122        9D-1        0.00000   0.00000   0.00000   0.00000  -0.00692
 123        9D+2        0.00421   0.00938   0.00261   0.00732   0.00000
 124        9D-2       -0.00584  -0.00261  -0.00637  -0.00423   0.00000
 125       10D 0        0.00135   0.00333  -0.00577  -0.00000   0.00000
 126       10D+1        0.00000   0.00000   0.00000   0.00000   0.00410
 127       10D-1        0.00000   0.00000   0.00000   0.00000  -0.01009
 128       10D+2        0.01267   0.00463  -0.00272  -0.00004   0.00000
 129       10D-2       -0.00493   0.00272  -0.00777   0.00002   0.00000
 130       11F 0        0.00000   0.00000   0.00000   0.00000   0.00408
 131       11F+1       -0.00056  -0.00099  -0.00046  -0.00106   0.00000
 132       11F-1       -0.00072   0.00161   0.00099   0.00184   0.00000
 133       11F+2        0.00000   0.00000   0.00000   0.00000   0.00244
 134       11F-2        0.00000   0.00000   0.00000   0.00000  -0.00026
 135       11F+3        0.00405  -0.00093  -0.00054  -0.00186   0.00000
 136       11F-3        0.00017   0.00178  -0.00308  -0.00000   0.00000
 137 7   C  1S          0.00544   0.02225   0.03853   0.00000   0.00000
 138        2S          0.01142   0.04893   0.08475   0.00000   0.00000
 139        3S         -0.01627  -0.08185  -0.14177  -0.00000   0.00000
 140        4S         -0.02280  -0.10147  -0.17574  -0.00000   0.00000
 141        5S         -0.00481  -0.01018  -0.01763   0.00000   0.00000
 142        6PX        -0.10241  -0.08729   0.06161   0.10566   0.00000
 143        6PY         0.02865  -0.16240   0.08729   0.18301   0.00000
 144        6PZ         0.00000   0.00000   0.00000   0.00000   0.21567
 145        7PX        -0.06996  -0.04620   0.04405   0.06858   0.00000
 146        7PY         0.00771  -0.09740   0.04620   0.11878   0.00000
 147        7PZ         0.00000   0.00000   0.00000   0.00000   0.18696
 148        8PX        -0.03344  -0.01787   0.00995   0.02229   0.00000
 149        8PY         0.00695  -0.03058   0.01786   0.03861   0.00000
 150        8PZ         0.00000   0.00000   0.00000   0.00000   0.12468
 151        9D 0        0.00071   0.00254   0.00440   0.00000   0.00000
 152        9D+1        0.00000   0.00000   0.00000   0.00000  -0.00059
 153        9D-1        0.00000   0.00000   0.00000   0.00000   0.00692
 154        9D+2        0.00421   0.00938  -0.00261  -0.00732   0.00000
 155        9D-2        0.00584   0.00261  -0.00637  -0.00423   0.00000
 156       10D 0        0.00135   0.00333   0.00577   0.00000   0.00000
 157       10D+1        0.00000   0.00000   0.00000   0.00000   0.00410
 158       10D-1        0.00000   0.00000   0.00000   0.00000   0.01009
 159       10D+2        0.01267   0.00463   0.00272   0.00004   0.00000
 160       10D-2        0.00493  -0.00272  -0.00777   0.00002   0.00000
 161       11F 0        0.00000   0.00000   0.00000   0.00000  -0.00408
 162       11F+1        0.00056   0.00099  -0.00046  -0.00106   0.00000
 163       11F-1       -0.00072   0.00161  -0.00099  -0.00184   0.00000
 164       11F+2        0.00000   0.00000   0.00000   0.00000  -0.00244
 165       11F-2        0.00000   0.00000   0.00000   0.00000  -0.00026
 166       11F+3       -0.00405   0.00093  -0.00054  -0.00186   0.00000
 167       11F-3        0.00017   0.00178   0.00308   0.00000   0.00000
 168 8   H  1S         -0.05645  -0.01636   0.02834   0.00000   0.00000
 169        2S         -0.07921  -0.01442   0.02497   0.00000   0.00000
 170        3S         -0.02495   0.00891  -0.01543   0.00000   0.00000
 171        4PX        -0.00633   0.00004   0.00620   0.00347   0.00000
 172        4PY        -0.00291  -0.00625  -0.00004  -0.00602   0.00000
 173        4PZ         0.00000   0.00000   0.00000   0.00000  -0.00978
 174 9   H  1S         -0.05645  -0.01636  -0.02834  -0.00000   0.00000
 175        2S         -0.07921  -0.01442  -0.02497  -0.00000   0.00000
 176        3S         -0.02495   0.00891   0.01543  -0.00000   0.00000
 177        4PX         0.00633  -0.00004   0.00620   0.00347   0.00000
 178        4PY        -0.00291  -0.00625   0.00004   0.00602   0.00000
[...]
 O. Farkas, J. B. Foresman, J. V. Ortiz, J. Cioslowski, 
 and D. J. Fox, Gaussian, Inc., Wallingford CT, 2013.
 
 ******************************************
 Gaussian 09:  ES64L-G09RevD.01 24-Apr-2013
                 5-Aug-2025 
 ******************************************
 %OldChk=benceno_FC.chk
 %Chk=benceno_state1.chk
 Copying data from "benceno_FC.chk" to current chk file "benceno_state1.chk".
 ----------------------------------------------------------------------
 # Geom=AllCheck Guess=(Read,Only) Density=(Check,Transition=1) Pop=(Mi
 nimal,NTO,SaveNTO)
 ----------------------------------------------------------------------
 1/29=7,38=1/1;
 2/12=2,40=1/2;
 3/5=7,6=2,11=9,14=-4,16=1,25=1,30=1,67=1,89=1,116=-2/1,2,3;
 4/5=1/1;
 6/7=2,8=2,9=2,10=2,11=2,22=-10,28=1,29=1,89=11/1;
 99/5=2/99;
 Structure from the checkpoint file:  "benceno_state1.chk"
 ----------
 benceno_FC
 ----------
 Charge =  0 Multiplicity = 1
 Redundant internal coordinates found in file.
 C,0,-0.000000084,1.391233,0.
 C,0,-1.2048431626,0.6956164272,0.
 C,0,1.2048430786,0.6956165728,0.
 H,0,-2.1428011898,1.2371466712,0.
 H,0,2.1428010404,1.2371469301,0.
 C,0,-1.2048430786,-0.6956165728,0.
 C,0,1.2048431626,-0.6956164272,0.
 H,0,-2.1428010404,-1.2371469301,0.
 H,0,2.1428011898,-1.2371466712,0.
 C,0,0.000000084,-1.391233,0.
 H,0,0.0000001495,-2.4742936013,0.
 H,0,-0.0000001495,2.4742936013,0.
 Recover connectivity data from disk.
                          Input orientation:                          
 ---------------------------------------------------------------------
 Center     Atomic      Atomic             Coordinates (Angstroms)
 Number     Number       Type             X           Y           Z
 ---------------------------------------------------------------------
      1          6           0       -0.000000    1.391233    0.000000
      2          6           0       -1.204843    0.695616   -0.000000
      3          6           0        1.204843    0.695617    0.000000
      4          1           0       -2.142801    1.237147   -0.000000
      5          1           0        2.142801    1.237147    0.000000
      6          6           0       -1.204843   -0.695617   -0.000000
      7          6           0        1.204843   -0.695616    0.000000
      8          1           0       -2.142801   -1.237147   -0.000000
      9          1           0        2.142801   -1.237147    0.000000
     10          6           0        0.000000   -1.391233    0.000000
     11          1           0        0.000000   -2.474294    0.000000
     12          1           0       -0.000000    2.474294    0.000000
 ---------------------------------------------------------------------
                    Distance matrix (angstroms):
                    1          2          3          4          5
     1  C    0.000000
     2  C    1.391233   0.000000
     3  C    1.391233   2.409686   0.000000
     4  H    2.148334   1.083061   3.391162   0.000000
     5  H    2.148334   3.391162   1.083061   4.285602   0.000000
     6  C    2.409686   1.391233   2.782466   2.148334   3.865527
     7  C    2.409686   2.782466   1.391233   3.865527   2.148334
     8  H    3.391162   2.148334   3.865527   2.474294   4.948587
     9  H    3.391162   3.865527   2.148334   4.948587   2.474294
    10  C    2.782466   2.409686   2.409686   3.391162   3.391162
    11  H    3.865527   3.391162   3.391162   4.285602   4.285602
    12  H    1.083061   2.148334   2.148334   2.474294   2.474294
                    6          7          8          9         10
     6  C    0.000000
     7  C    2.409686   0.000000
     8  H    1.083061   3.391162   0.000000
     9  H    3.391162   1.083061   4.285602   0.000000
    10  C    1.391233   1.391233   2.148334   2.148334   0.000000
    11  H    2.148334   2.148334   2.474294   2.474294   1.083061
    12  H    3.391162   3.391162   4.285602   4.285602   3.865527
                   11         12
    11  H    0.000000
    12  H    4.948587   0.000000
 Stoichiometry    C6H6
 Framework group  D6H[3C2'(HC.CH)]
 Deg. of freedom     2
 Full point group                 D6H     NOp  24
 Largest Abelian subgroup         D2H     NOp   8
 Largest concise Abelian subgroup D2      NOp   4
                         Standard orientation:                         
 ---------------------------------------------------------------------
 Center     Atomic      Atomic             Coordinates (Angstroms)
 Number     Number       Type             X           Y           Z
 ---------------------------------------------------------------------
      1          6           0       -0.000000    1.391233    0.000000
      2          6           0       -1.204843    0.695616   -0.000000
      3          6           0        1.204843    0.695616   -0.000000
      4          1           0       -2.142801    1.237147    0.000000
      5          1           0        2.142801    1.237147    0.000000
      6          6           0       -1.204843   -0.695616   -0.000000
      7          6           0        1.204843   -0.695616   -0.000000
      8          1           0       -2.142801   -1.237147    0.000000
      9          1           0        2.142801   -1.237147    0.000000
     10          6           0        0.000000   -1.391233   -0.000000
     11          1           0        0.000000   -2.474294    0.000000
     12          1           0       -0.000000    2.474294    0.000000
 ---------------------------------------------------------------------
 Rotational constants (GHZ):      5.7306252      5.7306252      2.8653126
 Basis read from chk: "benceno_state1.chk" (5D, 7F)
 Pseudo-potential data read from chk file.
 There are    51 symmetry adapted cartesian basis functions of AG  symmetry.
 There are    39 symmetry adapted cartesian basis functions of B1G symmetry.
 There are    15 symmetry adapted cartesian basis functions of B2G symmetry.
 There are    21 symmetry adapted cartesian basis functions of B3G symmetry.
 There are    15 symmetry adapted cartesian basis functions of AU  symmetry.
 There are    21 symmetry adapted cartesian basis functions of B1U symmetry.
 There are    51 symmetry adapted cartesian basis functions of B2U symmetry.
 There are    39 symmetry adapted cartesian basis functions of B3U symmetry.
 There are    44 symmetry adapted basis functions of AG  symmetry.
 There are    34 symmetry adapted basis functions of B1G symmetry.
 There are    14 symmetry adapted basis functions of B2G symmetry.
 There are    19 symmetry adapted basis functions of B3G symmetry.
 There are    14 symmetry adapted basis functions of AU  symmetry.
 There are    19 symmetry adapted basis functions of B1U symmetry.
 There are    44 symmetry adapted basis functions of B2U symmetry.
 There are    34 symmetry adapted basis functions of B3U symmetry.
   222 basis functions,   354 primitive gaussians,   252 cartesian basis functions
    21 alpha electrons       21 beta electrons
       nuclear repulsion energy       203.9661241995 Hartrees.
 NAtoms=   12 NActive=   12 NUniq=    2 SFac= 4.00D+00 NAtFMM=   60 NAOKFM=F Big=F
 Integral buffers will be    131072 words long.
 Raffenetti 1 integral format.
 Two-electron integral symmetry is turned on.
 One-electron integrals computed using PRISM.
  24 Symmetry operations used in ECPInt.
 ECPInt:  NShTT=    4095 NPrTT=   12396 LenC2=    4075 LenP2D=   10419.
 LDataN:  DoStor=T MaxTD1= 6 Len=  172
 NBasis=   222 RedAO= T EigKep=  8.51D-06  NBF=    44    34    14    19    14    19    44    34
 NBsUse=   222 1.00D-06 EigRej= -1.00D+00 NBFU=    44    34    14    19    14    19    44    34
 Initial guess from the checkpoint file:  "benceno_state1.chk"
 B after Tr=     0.000000    0.000000   -0.000000
         Rot=    1.000000    0.000000    0.000000    0.000000 Ang=   0.00 deg.
 Initial guess orbital symmetries:
       Occupied  (?A) (B2G) (B2G) (?B) (?B) (?C) (?A) (B2G) (B2G)
                 (?B) (?B) (?A) (?C) (?C) (B2G) (B2G) (?D) (?B)
                 (?B) (?D) (?D)
       Virtual   (?D) (?D) (?A) (B2G) (B2G) (?B) (?B) (?C) (?D)
                 (?A) (?D) (?C) (?B) (?B) (B2G) (B2G) (?D) (?D)
                 (B2G) (B2G) (?A) (?D) (?D) (?B) (?B) (?C) (?D)
                 (B2G) (B2G) (?B) (?B) (?A) (?D) (?A) (?B) (?B)
                 (?C) (B2G) (B2G) (B2G) (B2G) (?D) (?A) (?C) (?D)
                 (?D) (?B) (?B) (?A) (?D) (?D) (?C) (?A) (?C) (?B)
                 (?B) (B2G) (B2G) (?D) (?D) (?D) (B2G) (B2G) (?B)
                 (?B) (?D) (?D) (B2G) (B2G) (?A) (?A) (?C) (?D)
                 (?B) (?B) (?D) (?D) (B2G) (B2G) (?D) (?C) (?A)
                 (?D) (?D) (?D) (?B) (?B) (B2G) (B2G) (?C) (?D)
                 (?D) (?D) (?D) (?D) (?C) (?B) (?B) (?C) (?B) (?B)
                 (?A) (B2G) (B2G) (?D) (?D) (B2G) (B2G) (?A) (?B)
                 (?B) (?C) (?D) (B2G) (B2G) (?D) (?D) (?A) (?B)
                 (?B) (?C) (?D) (?D) (?D) (?B) (?B) (?A) (?D) (?D)
                 (B2G) (B2G) (?C) (?D) (?D) (?D) (B2G) (B2G) (?D)
                 (?D) (?B) (?B) (?A) (?B) (?B) (?D) (B2G) (B2G)
                 (?D) (?D) (?D) (?D) (?A) (B2G) (B2G) (?C) (?C)
                 (?D) (?D) (?A) (?B) (?B) (?C) (?D) (?D) (?C) (?A)
                 (B2G) (B2G) (?D) (?B) (?B) (?C) (?A) (?D) (?D)
                 (?D) (?D) (?B) (?B) (B2G) (B2G) (?D) (B2G) (B2G)
                 (?D) (?B) (?B) (?B) (?B) (B2G) (B2G) (?C) (?A)
                 (?C) (?A) (?A) (B2G) (B2G) (?B) (?B) (?C)
 Using densities on the checkpoint file.
 Saving Alpha spin NTOs for state    1 to file 20524.

 **********************************************************************

   Populations using transition density between ground and state  1.

 **********************************************************************

 Orbital symmetries:
       Occupied  (B2G) (B2G) (B2G) (B2G) (B2G) (B2G) (B2G) (B2G)
                 (B2G) (B2G) (B2G) (B2G) (B2G) (B2G) (B2G) (B2G)
                 (B2G) (B2G) (B2G) (B2G) (B2G)
       Virtual   (B2G) (B2G) (B2G) (B2G) (B2G) (B2G) (B2G) (B2G)
                 (B2G) (B2G) (B2G) (B2G) (B2G) (B2G) (B2G) (B2G)
                 (B2G) (B2G) (B2G) (B2G) (B2G) (B2G) (B2G) (B2G)
                 (B2G) (B2G) (B2G) (B2G) (B2G) (B2G) (B2G) (B2G)
                 (B2G) (B2G) (B2G) (B2G) (B2G) (B2G) (B2G) (B2G)
                 (B2G) (B2G) (B2G) (B2G) (B2G) (B2G) (B2G) (B2G)
                 (B2G) (B2G) (B2G) (B2G) (B2G) (B2G) (B2G) (B2G)
                 (B2G) (B2G) (B2G) (B2G) (B2G) (B2G) (B2G) (B2G)
                 (B2G) (B2G) (B2G) (B2G) (B2G) (B2G) (B2G) (B2G)
                 (B2G) (B2G) (B2G) (B2G) (B2G) (B2G) (B2G) (B2G)
                 (B2G) (B2G) (B2G) (B2G) (B2G) (B2G) (B2G) (B2G)
                 (B2G) (B2G) (B2G) (B2G) (B2G) (B2G) (B2G) (B2G)
                 (B2G) (B2G) (B2G) (B2G) (B2G) (B2G) (B2G) (B2G)
                 (B2G) (B2G) (B2G) (B2G) (B2G) (B2G) (B2G) (B2G)
                 (B2G) (B2G) (B2G) (B2G) (B2G) (B2G) (B2G) (B2G)
                 (B2G) (B2G) (B2G) (B2G) (B2G) (B2G) (B2G) (B2G)
                 (B2G) (B2G) (B2G) (B2G) (B2G) (B2G) (B2G) (B2G)
                 (B2G) (B2G) (B2G) (B2G) (B2G) (B2G) (B2G) (B2G)
                 (B2G) (B2G) (B2G) (B2G) (B2G) (B2G) (B2G) (B2G)
                 (B2G) (B2G) (B2G) (B2G) (B2G) (B2G) (B2G) (B2G)
                 (B2G) (B2G) (B2G) (B2G) (B2G) (B2G) (B2G) (B2G)
                 (B2G) (B2G) (B2G) (B2G) (B2G) (B2G) (B2G) (B2G)
                 (B2G) (B2G) (B2G) (B2G) (B2G) (B2G) (B2G) (B2G)
                 (B2G) (B2G) (B2G) (B2G) (B2G) (B2G) (B2G) (B2G)
                 (B2G) (B2G) (B2G) (B2G) (B2G) (B2G) (B2G) (B2G)
                 (B2G)
 Unable to determine electronic state:  partially filled degenerate orbitals.
 Alpha  occ. eigenvalues --   -0.00000  -0.00000   0.00000   0.00000   0.00000
 Alpha  occ. eigenvalues --    0.00000   0.00000   0.00000   0.00004   0.00004
 Alpha  occ. eigenvalues --    0.00009   0.00009   0.00012   0.00012   0.00019
 Alpha  occ. eigenvalues --    0.00019   0.00021   0.00021   0.00051   0.49955
 Alpha  occ. eigenvalues --    0.49955
 Alpha virt. eigenvalues --    0.49955   0.49955   0.00051   0.00021   0.00021
 Alpha virt. eigenvalues --    0.00019   0.00019   0.00012   0.00012   0.00009
 Alpha virt. eigenvalues --    0.00009   0.00004   0.00004   0.00000   0.00000
 Alpha virt. eigenvalues --    0.00000   0.00000   0.00000   0.00000   0.00000
 Alpha virt. eigenvalues --    0.00000   0.00000   0.00000   0.00000   0.00000
 Alpha virt. eigenvalues --    0.00000   0.00000   0.00000   0.00000   0.00000
 Alpha virt. eigenvalues --    0.00000   0.00000   0.00000   0.00000   0.00000
 Alpha virt. eigenvalues --    0.00000   0.00000   0.00000   0.00000   0.00000
 Alpha virt. eigenvalues --    0.00000   0.00000   0.00000   0.00000   0.00000
 Alpha virt. eigenvalues --    0.00000   0.00000   0.00000   0.00000   0.00000
 Alpha virt. eigenvalues --    0.00000   0.00000   0.00000   0.00000   0.00000
 Alpha virt. eigenvalues --    0.00000   0.00000   0.00000   0.00000   0.00000
 Alpha virt. eigenvalues --    0.00000   0.00000   0.00000   0.00000   0.00000
 Alpha virt. eigenvalues --    0.00000   0.00000   0.00000   0.00000   0.00000
 Alpha virt. eigenvalues --    0.00000   0.00000   0.00000   0.00000   0.00000
 Alpha virt. eigenvalues --    0.00000   0.00000   0.00000   0.00000   0.00000
 Alpha virt. eigenvalues --    0.00000   0.00000   0.00000   0.00000   0.00000
 Alpha virt. eigenvalues --    0.00000   0.00000   0.00000   0.00000   0.00000
 Alpha virt. eigenvalues --    0.00000   0.00000   0.00000   0.00000   0.00000
 Alpha virt. eigenvalues --    0.00000   0.00000   0.00000   0.00000   0.00000
 Alpha virt. eigenvalues --    0.00000   0.00000   0.00000   0.00000   0.00000
 Alpha virt. eigenvalues --    0.00000   0.00000   0.00000   0.00000   0.00000
 Alpha virt. eigenvalues --    0.00000   0.00000   0.00000   0.00000   0.00000
 Alpha virt. eigenvalues --    0.00000   0.00000   0.00000   0.00000   0.00000
 Alpha virt. eigenvalues --    0.00000   0.00000   0.00000   0.00000   0.00000
 Alpha virt. eigenvalues --    0.00000   0.00000   0.00000   0.00000   0.00000
 Alpha virt. eigenvalues --    0.00000   0.00000   0.00000   0.00000   0.00000
 Alpha virt. eigenvalues --    0.00000   0.00000   0.00000   0.00000  -0.00000
 Alpha virt. eigenvalues --   -0.00000  -0.00000  -0.00000  -0.00000  -0.00000
 Alpha virt. eigenvalues --   -0.00000  -0.00000  -0.00000  -0.00000  -0.00000
 Alpha virt. eigenvalues --   -0.00000  -0.00000  -0.00000  -0.00000  -0.00000
 Alpha virt. eigenvalues --   -0.00000  -0.00000  -0.00000  -0.00000  -0.00000
 Alpha virt. eigenvalues --   -0.00000  -0.00000  -0.00000  -0.00000  -0.00000
 Alpha virt. eigenvalues --   -0.00000  -0.00000  -0.00000  -0.00000  -0.00000
 Alpha virt. eigenvalues --   -0.00000  -0.00000  -0.00000  -0.00000  -0.00000
 Alpha virt. eigenvalues --   -0.00000  -0.00000  -0.00000  -0.00000  -0.00000
 Alpha virt. eigenvalues --   -0.00000  -0.00000  -0.00000  -0.00000  -0.00000
 Alpha virt. eigenvalues --   -0.00000  -0.00000  -0.00000  -0.00000  -0.00000
 Alpha virt. eigenvalues --   -0.00000  -0.00000  -0.00000  -0.00000  -0.00000
 Alpha virt. eigenvalues --   -0.00000  -0.00000  -0.00000  -0.00000  -0.00000
 Alpha virt. eigenvalues --   -0.00000
          Condensed to atoms (all electrons):
               1          2          3          4          5          6
     1  C   -0.000000   0.232855  -0.232855   0.012505  -0.012505   0.000002
     2  C    0.232855   0.000003  -0.000000  -0.000008   0.000822  -0.232862
     3  C   -0.232855  -0.000000  -0.000003  -0.000822   0.000008   0.000000
     4  H    0.012505  -0.000008  -0.000822   0.000005   0.000000  -0.012496
     5  H   -0.012505   0.000822   0.000008   0.000000  -0.000005  -0.000001
     6  C    0.000002  -0.232862   0.000000  -0.012496  -0.000001   0.000003
     7  C   -0.000002   0.000000   0.232862   0.000001   0.012496  -0.000000
     8  H    0.000818  -0.012496   0.000001   0.000414   0.000000  -0.000008
     9  H   -0.000818  -0.000001   0.012496   0.000000  -0.000414   0.000822
    10  C   -0.000000   0.000002  -0.000002   0.000818  -0.000818   0.232855
    11  H    0.000000  -0.000820   0.000820  -0.000000   0.000000   0.012504
    12  H   -0.000000   0.012504  -0.012504  -0.000414   0.000414  -0.000820
               7          8          9         10         11         12
     1  C   -0.000002   0.000818  -0.000818  -0.000000   0.000000  -0.000000
     2  C    0.000000  -0.012496  -0.000001   0.000002  -0.000820   0.012504
     3  C    0.232862   0.000001   0.012496  -0.000002   0.000820  -0.012504
     4  H    0.000001   0.000414   0.000000   0.000818  -0.000000  -0.000414
     5  H    0.012496   0.000000  -0.000414  -0.000818   0.000000   0.000414
     6  C   -0.000000  -0.000008   0.000822   0.232855   0.012504  -0.000820
     7  C   -0.000003  -0.000822   0.000008  -0.232855  -0.012504   0.000820
     8  H   -0.000822   0.000005  -0.000000   0.012505  -0.000414  -0.000000
     9  H    0.000008  -0.000000  -0.000005  -0.012505   0.000414   0.000000
    10  C   -0.232855   0.012505  -0.012505  -0.000000   0.000000   0.000000
    11  H   -0.012504  -0.000414   0.000414   0.000000  -0.000000   0.000000
    12  H    0.000820  -0.000000   0.000000   0.000000   0.000000   0.000000
 Mulliken charges:
               1
     1  C    6.000000
     2  C    6.000001
     3  C    5.999999
     4  H    0.999996
     5  H    1.000004
     6  C    6.000001
     7  C    5.999999
     8  H    0.999996
     9  H    1.000004
    10  C    6.000000
    11  H    1.000000
    12  H    1.000000
 Sum of Mulliken charges =  42.00000
 Mulliken charges with hydrogens summed into heavy atoms:
               1
     1  C    7.000000
     2  C    6.999998
     3  C    7.000002
     6  C    6.999998
     7  C    7.000002
    10  C    7.000000
 Electronic spatial extent (au):  <R**2>=              0.0000
 Charge=              0.0000 electrons
 Dipole moment (field-independent basis, Debye):
    X=              0.0000    Y=             -0.0000    Z=             -0.0000  Tot=              0.0000
 Quadrupole moment (field-independent basis, Debye-Ang):
   XX=              0.0000   YY=             -0.0000   ZZ=             -0.0000
   XY=              0.0000   XZ=             -0.0000   YZ=             -0.0000
 Traceless Quadrupole moment (field-independent basis, Debye-Ang):
   XX=              0.0000   YY=             -0.0000   ZZ=             -0.0000
   XY=              0.0000   XZ=             -0.0000   YZ=             -0.0000
 Octapole moment (field-independent basis, Debye-Ang**2):
  XXX=             -3.6820  YYY=             -0.0000  ZZZ=             -0.0000  XYY=              3.6822
  XXY=              0.0000  XXZ=             -0.0000  XZZ=              0.0001  YZZ=             -0.0000
  YYZ=             -0.0000  XYZ=             -0.0000
 Hexadecapole moment (field-independent basis, Debye-Ang**3):
 XXXX=              0.0000 YYYY=             -0.0000 ZZZZ=             -0.0000 XXXY=              0.0000
 XXXZ=             -0.0000 YYYX=              0.0000 YYYZ=              0.0000 ZZZX=             -0.0000
 ZZZY=             -0.0000 XXYY=              0.0000 XXZZ=              0.0000 YYZZ=             -0.0000
 XXYZ=             -0.0000 YYXZ=             -0.0000 ZZXY=             -0.0000
 N-N= 2.039661241995D+02 E-N= 6.384936362242D-15  KE=-1.038319947695D-15
 Symmetry AG   KE=-5.366239531746D-16
 Symmetry B1G  KE= 4.051941422668D-16
 Symmetry B2G  KE=-6.090628790627D-16
 Symmetry B3G  KE=-4.592678306305D-16
 Symmetry AU   KE= 1.752521766865D-16
 Symmetry B1U  KE=-5.846803955438D-16
 Symmetry B2U  KE= 1.125576781158D-15
 Symmetry B3U  KE=-1.131309113829D-16

 This type of calculation cannot be archived.


 IT'S WHAT YOU LEARN AFTER YOU KNOW IT ALL
 THAT COUNTS.
 Job cpu time:       0 days  0 hours  0 minutes  0.7 seconds.
 File lengths (MBytes):  RWF=    960 Int=      0 D2E=      0 Chk=   1072 Scr=     32
 Normal termination of Gaussian 09 at Tue Aug  5 11:42:47 2025.
