benceno_FC                                                              
Guess=OnlyRHF                                                         Gen                 
Number of atoms                            I               12
Info1-9                                    I   N=           9
           4           4           0           0           0         100
           3           1           2
Charge                                     I                0
Multiplicity                               I                1
Number of electrons                        I               42
Number of alpha electrons                  I               21
Number of beta electrons                   I               21
Number of basis functions                  I              222
Number of independent functions            I              222
Number of point charges in /Mol/           I                0
Number of translation vectors              I                0
Atomic numbers                             I   N=          12
           6           6           6           1           1           6
           6           1           1           6           1           1
Nuclear charges                            R   N=          12
  6.00000000E+00  6.00000000E+00  6.00000000E+00  1.00000000E+00  1.00000000E+00
  6.00000000E+00  6.00000000E+00  1.00000000E+00  1.00000000E+00  6.00000000E+00
  1.00000000E+00  1.00000000E+00
Current cartesian coordinates              R   N=          36
 -2.64697796E-23  2.62904936E+00  5.87747175E-39 -2.27682353E+00  1.31452468E+00
 -4.93038066E-32  2.27682353E+00  1.31452468E+00  0.00000000E+00 -4.04930726E+00
  2.33786864E+00  9.86076132E-32  4.04930726E+00  2.33786864E+00  4.95897118E-16
 -2.27682353E+00 -1.31452468E+00  0.00000000E+00  2.27682353E+00 -1.31452468E+00
  0.00000000E+00 -4.04930726E+00 -2.33786864E+00  2.86306335E-16  4.04930726E+00
 -2.33786864E+00  9.86076132E-32  3.21965720E-16 -2.62904936E+00 -2.45157575E-33
  3.55271368E-15 -4.67573728E+00  8.26080242E-32 -1.77635684E-15  4.67573728E+00
  8.19555073E-32
Force Field                                I                0
Int Atom Types                             I   N=          12
           0           0           0           0           0           0
           0           0           0           0           0           0
MM charges                                 R   N=          12
  0.00000000E+00  0.00000000E+00  0.00000000E+00  0.00000000E+00  0.00000000E+00
  0.00000000E+00  0.00000000E+00  0.00000000E+00  0.00000000E+00  0.00000000E+00
  0.00000000E+00  0.00000000E+00
Integer atomic weights                     I   N=          12
          12          12          12           1           1          12
          12           1           1          12           1           1
Real atomic weights                        R   N=          12
  1.20000000E+01  1.20000000E+01  1.20000000E+01  1.00782504E+00  1.00782504E+00
  1.20000000E+01  1.20000000E+01  1.00782504E+00  1.00782504E+00  1.20000000E+01
  1.00782504E+00  1.00782504E+00
Atom fragment info                         I   N=          12
           0           0           0           0           0           0
           0           0           0           0           0           0
Atom residue num                           I   N=          12
           0           0           0           0           0           0
           0           0           0           0           0           0
Nuclear spins                              I   N=          12
           0           0           0           1           1           0
           0           1           1           0           1           1
Nuclear ZEff                               R   N=          12
 -3.60000000E+00 -3.60000000E+00 -3.60000000E+00 -1.00000000E+00 -1.00000000E+00
 -3.60000000E+00 -3.60000000E+00 -1.00000000E+00 -1.00000000E+00 -3.60000000E+00
 -1.00000000E+00 -1.00000000E+00
Nuclear ZNuc                               R   N=          12
  6.00000000E+00  6.00000000E+00  6.00000000E+00  1.00000000E+00  1.00000000E+00
  6.00000000E+00  6.00000000E+00  1.00000000E+00  1.00000000E+00  6.00000000E+00
  1.00000000E+00  1.00000000E+00
Nuclear QMom                               R   N=          12
  0.00000000E+00  0.00000000E+00  0.00000000E+00  0.00000000E+00  0.00000000E+00
  0.00000000E+00  0.00000000E+00  0.00000000E+00  0.00000000E+00  0.00000000E+00
  0.00000000E+00  0.00000000E+00
Nuclear GFac                               R   N=          12
  0.00000000E+00  0.00000000E+00  0.00000000E+00  2.79284600E+00  2.79284600E+00
  0.00000000E+00  0.00000000E+00  2.79284600E+00  2.79284600E+00  0.00000000E+00
  2.79284600E+00  2.79284600E+00
MicOpt                                     I   N=          12
          -1          -1          -1          -1          -1          -1
          -1          -1          -1          -1          -1          -1
Number of contracted shells                I               90
Number of primitive shells                 I              156
Pure/Cartesian d shells                    I                0
Pure/Cartesian f shells                    I                0
Highest angular momentum                   I                3
Largest degree of contraction              I                6
Shell types                                I   N=          90
           0           0           0           0           0           1
           1           1          -2          -2          -3           0
           0           0           0           0           1           1
           1          -2          -2          -3           0           0
           0           0           0           1           1           1
          -2          -2          -3           0           0           0
           1           0           0           0           1           0
           0           0           0           0           1           1
           1          -2          -2          -3           0           0
           0           0           0           1           1           1
          -2          -2          -3           0           0           0
           1           0           0           0           1           0
           0           0           0           0           1           1
           1          -2          -2          -3           0           0
           0           1           0           0           0           1
Number of primitives per shell             I   N=          90
           6           2           1           1           1           4
           1           1           1           1           1           6
           2           1           1           1           4           1
           1           1           1           1           6           2
           1           1           1           4           1           1
           1           1           1           3           1           1
           1           3           1           1           1           6
           2           1           1           1           4           1
           1           1           1           1           6           2
           1           1           1           4           1           1
           1           1           1           3           1           1
           1           3           1           1           1           6
           2           1           1           1           4           1
           1           1           1           1           3           1
           1           1           3           1           1           1
Shell to atom map                          I   N=          90
           1           1           1           1           1           1
           1           1           1           1           1           2
           2           2           2           2           2           2
           2           2           2           2           3           3
           3           3           3           3           3           3
           3           3           3           4           4           4
           4           5           5           5           5           6
           6           6           6           6           6           6
           6           6           6           6           7           7
           7           7           7           7           7           7
           7           7           7           8           8           8
           8           9           9           9           9          10
          10          10          10          10          10          10
          10          10          10          10          11          11
          11          11          12          12          12          12
Primitive exponents                        R   N=         156
  1.35753497E+04  2.03523337E+03  4.63225624E+02  1.31200196E+02  4.28530159E+01
  1.55841858E+01  6.20671385E+00  2.57648965E+00  5.76963394E-01  2.29728314E-01
  9.51644400E-02  3.46972322E+01  7.95826228E+00  2.37808269E+00  8.14332082E-01
  2.88875473E-01  1.00568237E-01  1.09700000E+00  3.18000000E-01  7.61000000E-01
  1.35753497E+04  2.03523337E+03  4.63225624E+02  1.31200196E+02  4.28530159E+01
  1.55841858E+01  6.20671385E+00  2.57648965E+00  5.76963394E-01  2.29728314E-01
  9.51644400E-02  3.46972322E+01  7.95826228E+00  2.37808269E+00  8.14332082E-01
  2.88875473E-01  1.00568237E-01  1.09700000E+00  3.18000000E-01  7.61000000E-01
  1.35753497E+04  2.03523337E+03  4.63225624E+02  1.31200196E+02  4.28530159E+01
  1.55841858E+01  6.20671385E+00  2.57648965E+00  5.76963394E-01  2.29728314E-01
  9.51644400E-02  3.46972322E+01  7.95826228E+00  2.37808269E+00  8.14332082E-01
  2.88875473E-01  1.00568237E-01  1.09700000E+00  3.18000000E-01  7.61000000E-01
  3.40613410E+01  5.12357460E+00  1.16466260E+00  3.27230410E-01  1.03072410E-01
  8.00000000E-01  3.40613410E+01  5.12357460E+00  1.16466260E+00  3.27230410E-01
  1.03072410E-01  8.00000000E-01  1.35753497E+04  2.03523337E+03  4.63225624E+02
  1.31200196E+02  4.28530159E+01  1.55841858E+01  6.20671385E+00  2.57648965E+00
  5.76963394E-01  2.29728314E-01  9.51644400E-02  3.46972322E+01  7.95826228E+00
  2.37808269E+00  8.14332082E-01  2.88875473E-01  1.00568237E-01  1.09700000E+00
  3.18000000E-01  7.61000000E-01  1.35753497E+04  2.03523337E+03  4.63225624E+02
  1.31200196E+02  4.28530159E+01  1.55841858E+01  6.20671385E+00  2.57648965E+00
  5.76963394E-01  2.29728314E-01  9.51644400E-02  3.46972322E+01  7.95826228E+00
  2.37808269E+00  8.14332082E-01  2.88875473E-01  1.00568237E-01  1.09700000E+00
  3.18000000E-01  7.61000000E-01  3.40613410E+01  5.12357460E+00  1.16466260E+00
  3.27230410E-01  1.03072410E-01  8.00000000E-01  3.40613410E+01  5.12357460E+00
  1.16466260E+00  3.27230410E-01  1.03072410E-01  8.00000000E-01  1.35753497E+04
  2.03523337E+03  4.63225624E+02  1.31200196E+02  4.28530159E+01  1.55841858E+01
  6.20671385E+00  2.57648965E+00  5.76963394E-01  2.29728314E-01  9.51644400E-02
  3.46972322E+01  7.95826228E+00  2.37808269E+00  8.14332082E-01  2.88875473E-01
  1.00568237E-01  1.09700000E+00  3.18000000E-01  7.61000000E-01  3.40613410E+01
  5.12357460E+00  1.16466260E+00  3.27230410E-01  1.03072410E-01  8.00000000E-01
  3.40613410E+01  5.12357460E+00  1.16466260E+00  3.27230410E-01  1.03072410E-01
  8.00000000E-01
Contraction coefficients                   R   N=         156
  6.06455036E-04  4.69790889E-03  2.43324776E-02  9.73999683E-02  3.01955843E-01
  6.62336091E-01  6.55953085E-01  3.75856333E-01  1.00000000E+00  1.00000000E+00
  1.00000000E+00  1.13272200E-02  7.61696592E-02  3.01922522E-01  7.27850273E-01
  1.00000000E+00  1.00000000E+00  1.00000000E+00  1.00000000E+00  1.00000000E+00
  6.06455036E-04  4.69790889E-03  2.43324776E-02  9.73999683E-02  3.01955843E-01
  6.62336091E-01  6.55953085E-01  3.75856333E-01  1.00000000E+00  1.00000000E+00
  1.00000000E+00  1.13272200E-02  7.61696592E-02  3.01922522E-01  7.27850273E-01
  1.00000000E+00  1.00000000E+00  1.00000000E+00  1.00000000E+00  1.00000000E+00
  6.06455036E-04  4.69790889E-03  2.43324776E-02  9.73999683E-02  3.01955843E-01
  6.62336091E-01  6.55953085E-01  3.75856333E-01  1.00000000E+00  1.00000000E+00
  1.00000000E+00  1.13272200E-02  7.61696592E-02  3.01922522E-01  7.27850273E-01
  1.00000000E+00  1.00000000E+00  1.00000000E+00  1.00000000E+00  1.00000000E+00
  2.54393072E-02  1.90085949E-01  8.52441130E-01  1.00000000E+00  1.00000000E+00
  1.00000000E+00  2.54393072E-02  1.90085949E-01  8.52441130E-01  1.00000000E+00
  1.00000000E+00  1.00000000E+00  6.06455036E-04  4.69790889E-03  2.43324776E-02
  9.73999683E-02  3.01955843E-01  6.62336091E-01  6.55953085E-01  3.75856333E-01
  1.00000000E+00  1.00000000E+00  1.00000000E+00  1.13272200E-02  7.61696592E-02
  3.01922522E-01  7.27850273E-01  1.00000000E+00  1.00000000E+00  1.00000000E+00
  1.00000000E+00  1.00000000E+00  6.06455036E-04  4.69790889E-03  2.43324776E-02
  9.73999683E-02  3.01955843E-01  6.62336091E-01  6.55953085E-01  3.75856333E-01
  1.00000000E+00  1.00000000E+00  1.00000000E+00  1.13272200E-02  7.61696592E-02
  3.01922522E-01  7.27850273E-01  1.00000000E+00  1.00000000E+00  1.00000000E+00
  1.00000000E+00  1.00000000E+00  2.54393072E-02  1.90085949E-01  8.52441130E-01
  1.00000000E+00  1.00000000E+00  1.00000000E+00  2.54393072E-02  1.90085949E-01
  8.52441130E-01  1.00000000E+00  1.00000000E+00  1.00000000E+00  6.06455036E-04
  4.69790889E-03  2.43324776E-02  9.73999683E-02  3.01955843E-01  6.62336091E-01
  6.55953085E-01  3.75856333E-01  1.00000000E+00  1.00000000E+00  1.00000000E+00
  1.13272200E-02  7.61696592E-02  3.01922522E-01  7.27850273E-01  1.00000000E+00
  1.00000000E+00  1.00000000E+00  1.00000000E+00  1.00000000E+00  2.54393072E-02
  1.90085949E-01  8.52441130E-01  1.00000000E+00  1.00000000E+00  1.00000000E+00
  2.54393072E-02  1.90085949E-01  8.52441130E-01  1.00000000E+00  1.00000000E+00
  1.00000000E+00
Coordinates of each shell                  R   N=         270
 -2.64697796E-23  2.62904936E+00  5.87747175E-39 -2.64697796E-23  2.62904936E+00
  5.87747175E-39 -2.64697796E-23  2.62904936E+00  5.87747175E-39 -2.64697796E-23
  2.62904936E+00  5.87747175E-39 -2.64697796E-23  2.62904936E+00  5.87747175E-39
 -2.64697796E-23  2.62904936E+00  5.87747175E-39 -2.64697796E-23  2.62904936E+00
  5.87747175E-39 -2.64697796E-23  2.62904936E+00  5.87747175E-39 -2.64697796E-23
  2.62904936E+00  5.87747175E-39 -2.64697796E-23  2.62904936E+00  5.87747175E-39
 -2.64697796E-23  2.62904936E+00  5.87747175E-39 -2.27682353E+00  1.31452468E+00
 -4.93038066E-32 -2.27682353E+00  1.31452468E+00 -4.93038066E-32 -2.27682353E+00
  1.31452468E+00 -4.93038066E-32 -2.27682353E+00  1.31452468E+00 -4.93038066E-32
 -2.27682353E+00  1.31452468E+00 -4.93038066E-32 -2.27682353E+00  1.31452468E+00
 -4.93038066E-32 -2.27682353E+00  1.31452468E+00 -4.93038066E-32 -2.27682353E+00
  1.31452468E+00 -4.93038066E-32 -2.27682353E+00  1.31452468E+00 -4.93038066E-32
 -2.27682353E+00  1.31452468E+00 -4.93038066E-32 -2.27682353E+00  1.31452468E+00
 -4.93038066E-32  2.27682353E+00  1.31452468E+00  0.00000000E+00  2.27682353E+00
  1.31452468E+00  0.00000000E+00  2.27682353E+00  1.31452468E+00  0.00000000E+00
  2.27682353E+00  1.31452468E+00  0.00000000E+00  2.27682353E+00  1.31452468E+00
  0.00000000E+00  2.27682353E+00  1.31452468E+00  0.00000000E+00  2.27682353E+00
  1.31452468E+00  0.00000000E+00  2.27682353E+00  1.31452468E+00  0.00000000E+00
  2.27682353E+00  1.31452468E+00  0.00000000E+00  2.27682353E+00  1.31452468E+00
  0.00000000E+00  2.27682353E+00  1.31452468E+00  0.00000000E+00 -4.04930726E+00
  2.33786864E+00  9.86076132E-32 -4.04930726E+00  2.33786864E+00  9.86076132E-32
 -4.04930726E+00  2.33786864E+00  9.86076132E-32 -4.04930726E+00  2.33786864E+00
  9.86076132E-32  4.04930726E+00  2.33786864E+00  4.95897118E-16  4.04930726E+00
  2.33786864E+00  4.95897118E-16  4.04930726E+00  2.33786864E+00  4.95897118E-16
  4.04930726E+00  2.33786864E+00  4.95897118E-16 -2.27682353E+00 -1.31452468E+00
  0.00000000E+00 -2.27682353E+00 -1.31452468E+00  0.00000000E+00 -2.27682353E+00
 -1.31452468E+00  0.00000000E+00 -2.27682353E+00 -1.31452468E+00  0.00000000E+00
 -2.27682353E+00 -1.31452468E+00  0.00000000E+00 -2.27682353E+00 -1.31452468E+00
  0.00000000E+00 -2.27682353E+00 -1.31452468E+00  0.00000000E+00 -2.27682353E+00
 -1.31452468E+00  0.00000000E+00 -2.27682353E+00 -1.31452468E+00  0.00000000E+00
 -2.27682353E+00 -1.31452468E+00  0.00000000E+00 -2.27682353E+00 -1.31452468E+00
  0.00000000E+00  2.27682353E+00 -1.31452468E+00  0.00000000E+00  2.27682353E+00
 -1.31452468E+00  0.00000000E+00  2.27682353E+00 -1.31452468E+00  0.00000000E+00
  2.27682353E+00 -1.31452468E+00  0.00000000E+00  2.27682353E+00 -1.31452468E+00
  0.00000000E+00  2.27682353E+00 -1.31452468E+00  0.00000000E+00  2.27682353E+00
 -1.31452468E+00  0.00000000E+00  2.27682353E+00 -1.31452468E+00  0.00000000E+00
  2.27682353E+00 -1.31452468E+00  0.00000000E+00  2.27682353E+00 -1.31452468E+00
  0.00000000E+00  2.27682353E+00 -1.31452468E+00  0.00000000E+00 -4.04930726E+00
 -2.33786864E+00  2.86306335E-16 -4.04930726E+00 -2.33786864E+00  2.86306335E-16
 -4.04930726E+00 -2.33786864E+00  2.86306335E-16 -4.04930726E+00 -2.33786864E+00
  2.86306335E-16  4.04930726E+00 -2.33786864E+00  9.86076132E-32  4.04930726E+00
 -2.33786864E+00  9.86076132E-32  4.04930726E+00 -2.33786864E+00  9.86076132E-32
  4.04930726E+00 -2.33786864E+00  9.86076132E-32  3.21965720E-16 -2.62904936E+00
 -2.45157575E-33  3.21965720E-16 -2.62904936E+00 -2.45157575E-33  3.21965720E-16
 -2.62904936E+00 -2.45157575E-33  3.21965720E-16 -2.62904936E+00 -2.45157575E-33
  3.21965720E-16 -2.62904936E+00 -2.45157575E-33  3.21965720E-16 -2.62904936E+00
 -2.45157575E-33  3.21965720E-16 -2.62904936E+00 -2.45157575E-33  3.21965720E-16
 -2.62904936E+00 -2.45157575E-33  3.21965720E-16 -2.62904936E+00 -2.45157575E-33
  3.21965720E-16 -2.62904936E+00 -2.45157575E-33  3.21965720E-16 -2.62904936E+00
 -2.45157575E-33  3.55271368E-15 -4.67573728E+00  8.26080242E-32  3.55271368E-15
 -4.67573728E+00  8.26080242E-32  3.55271368E-15 -4.67573728E+00  8.26080242E-32
  3.55271368E-15 -4.67573728E+00  8.26080242E-32 -1.77635684E-15  4.67573728E+00
  8.19555073E-32 -1.77635684E-15  4.67573728E+00  8.19555073E-32 -1.77635684E-15
  4.67573728E+00  8.19555073E-32 -1.77635684E-15  4.67573728E+00  8.19555073E-32
Constraint Structure                       R   N=          36
 -2.64697796E-23  2.62904936E+00  5.87747175E-39 -2.27682353E+00  1.31452468E+00
 -4.93038066E-32  2.27682353E+00  1.31452468E+00  0.00000000E+00 -4.04930726E+00
  2.33786864E+00  9.86076132E-32  4.04930726E+00  2.33786864E+00  4.95897118E-16
 -2.27682353E+00 -1.31452468E+00  0.00000000E+00  2.27682353E+00 -1.31452468E+00
  0.00000000E+00 -4.04930726E+00 -2.33786864E+00  2.86306335E-16  4.04930726E+00
 -2.33786864E+00  9.86076132E-32  3.21965720E-16 -2.62904936E+00 -2.45157575E-33
  3.55271368E-15 -4.67573728E+00  8.26080242E-32 -1.77635684E-15  4.67573728E+00
  8.19555073E-32
Num ILSW                                   I              100
ILSW                                       I   N=         100
           0           0           0           0           0           0
           0           0           0           0           0          -1
           0           0           0           0           0           0
           0           0           1           0           0           0
           0           0           0           0           0           0
           0           0      100000           0          -1           0
           0           0           0           0           0           0
           0           0           0           1           0           0
           0           0           1           0           0           0
           0           0           4          41           0           0
           0           0           0           0           0           0
           0           0           0           0           0           0
           0           0           0           0           0           0
           0           0           0           0           0           0
           0           0           0           0           0           0
           0           0           0           0           0           0
           0           0           0           0
Num RLSW                                   I               41
RLSW                                       R   N=          41
  1.00000000E+00  1.00000000E+00  1.00000000E+00  1.00000000E+00  1.00000000E+00
  0.00000000E+00  0.00000000E+00  1.00000000E+00  0.00000000E+00  0.00000000E+00
  0.00000000E+00  0.00000000E+00  1.00000000E+00  0.00000000E+00  0.00000000E+00
  0.00000000E+00  0.00000000E+00  1.00000000E+00  0.00000000E+00  0.00000000E+00
  0.00000000E+00  0.00000000E+00  1.00000000E+00  0.00000000E+00  0.00000000E+00
  0.00000000E+00  0.00000000E+00  1.00000000E+00  0.00000000E+00  0.00000000E+00
  0.00000000E+00  0.00000000E+00  1.00000000E+00  0.00000000E+00  0.00000000E+00
  0.00000000E+00  0.00000000E+00  0.00000000E+00  1.00000000E+00  1.00000000E+00
  0.00000000E+00
ECP-MxAtEC                                 I           250000
ECP-MaxLECP                                I               10
ECP-MaxAtL                                 I          2250000
ECP-MxTECP                                 I         11250000
ECP-LenNCZ                                 I                0
ECP-KFirst                                 I   N=         120
           0           0           0           0           0           0
           0           0           0           0           0           0
           0           0           0           0           0           0
           0           0           0           0           0           0
           0           0           0           0           0           0
           0           0           0           0           0           0
           0           0           0           0           0           0
           0           0           0           0           0           0
           0           0           0           0           0           0
           0           0           0           0           0           0
           0           0           0           0           0           0
           0           0           0           0           0           0
           0           0           0           0           0           0
           0           0           0           0           0           0
           0           0           0           0           0           0
           0           0           0           0           0           0
           0           0           0           0           0           0
           0           0           0           0           0           0
           0           0           0           0           0           0
           0           0           0           0           0           0
ECP-KLast                                  I   N=         120
           0           0           0           0           0           0
           0           0           0           0           0           0
           0           0           0           0           0           0
           0           0           0           0           0           0
           0           0           0           0           0           0
           0           0           0           0           0           0
           0           0           0           0           0           0
           0           0           0           0           0           0
           0           0           0           0           0           0
           0           0           0           0           0           0
           0           0           0           0           0           0
           0           0           0           0           0           0
           0           0           0           0           0           0
           0           0           0           0           0           0
           0           0           0           0           0           0
           0           0           0           0           0           0
           0           0           0           0           0           0
           0           0           0           0           0           0
           0           0           0           0           0           0
           0           0           0           0           0           0
ECP-LMax                                   I   N=          12
           0           0           0           0           0           0
           0           0           0           0           0           0
ECP-LPSkip                                 I   N=          12
           1           1           1           1           1           1
           1           1           1           1           1           1
ECP-RNFroz                                 R   N=          12
  0.00000000E+00  0.00000000E+00  0.00000000E+00  0.00000000E+00  0.00000000E+00
  0.00000000E+00  0.00000000E+00  0.00000000E+00  0.00000000E+00  0.00000000E+00
  0.00000000E+00  0.00000000E+00
ECP-NLP                                    I                0
ECP-CLP1                                   R      0.000000000000000E+00
ECP-CLP2                                   R      0.000000000000000E+00
ECP-ZLP                                    R      0.000000000000000E+00
MxBond                                     I                3
NBond                                      I   N=          12
           3           3           3           1           1           3
           3           1           1           3           1           1
IBond                                      I   N=          36
           2           3          12           1           4           6
           1           5           7           2           0           0
           3           0           0           2           8          10
           3           9          10           6           0           0
           7           0           0           6           7          11
          10           0           0           1           0           0
RBond                                      R   N=          36
  1.50000000E+00  1.50000000E+00  1.00000000E+00  1.50000000E+00  1.00000000E+00
  1.50000000E+00  1.50000000E+00  1.00000000E+00  1.50000000E+00  1.00000000E+00
  0.00000000E+00  0.00000000E+00  1.00000000E+00  0.00000000E+00  0.00000000E+00
  1.50000000E+00  1.00000000E+00  1.50000000E+00  1.50000000E+00  1.00000000E+00
  1.50000000E+00  1.00000000E+00  0.00000000E+00  0.00000000E+00  1.00000000E+00
  0.00000000E+00  0.00000000E+00  1.50000000E+00  1.50000000E+00  1.00000000E+00
  1.00000000E+00  0.00000000E+00  0.00000000E+00  1.00000000E+00  0.00000000E+00
  0.00000000E+00
Virial Ratio                               R      0.000000000000000E+00
External E-field                           R   N=          35
  0.00000000E+00  0.00000000E+00  0.00000000E+00  0.00000000E+00  0.00000000E+00
  0.00000000E+00  0.00000000E+00  0.00000000E+00  0.00000000E+00  0.00000000E+00
  0.00000000E+00  0.00000000E+00  0.00000000E+00  0.00000000E+00  0.00000000E+00
  0.00000000E+00  0.00000000E+00  0.00000000E+00  0.00000000E+00  0.00000000E+00
  0.00000000E+00  0.00000000E+00  0.00000000E+00  0.00000000E+00  0.00000000E+00
  0.00000000E+00  0.00000000E+00  0.00000000E+00  0.00000000E+00  0.00000000E+00
  0.00000000E+00  0.00000000E+00  0.00000000E+00  0.00000000E+00  0.00000000E+00
IOpCl                                      I                0
IROHF                                      I                0
Alpha Orbital Energies                     R   N=         222
  2.00001844E+00  2.00000011E+00  2.00000008E+00  2.00000008E+00  2.00000005E+00
  2.00000004E+00  2.00000004E+00  1.99999721E+00  1.99995829E+00  1.99995829E+00
  1.99991879E+00  1.99987914E+00  1.99987039E+00  1.99987038E+00  1.99979217E+00
  1.99979217E+00  1.99972765E+00  1.99972764E+00  1.99936905E+00  1.50033846E+00
  1.50033177E+00  4.99690933E-01  4.99684322E-01  6.16677497E-04  2.77411126E-04
  2.77399030E-04  2.28132896E-04  2.28128073E-04  1.48185433E-04  1.48175280E-04
  1.32856001E-04  1.12431928E-04  5.33626446E-05  5.33595338E-05  1.86692165E-05
  1.86670463E-05  1.49896296E-05  5.70993902E-06  3.25756265E-06  3.25754484E-06
  3.24481204E-06  2.08584565E-06  1.54870212E-06  1.54869484E-06  2.96291659E-07
  1.72231569E-07  1.72212478E-07  1.53848385E-07  1.53827588E-07  1.02843768E-07
  2.89553481E-08  1.41025267E-15  1.03191088E-15  5.82745483E-16  5.68856835E-16
  4.94154424E-16  4.38760867E-16  4.00769369E-16  3.70131701E-16  2.80067909E-16
  2.72682684E-16  2.22894227E-16  2.09270427E-16  1.85148417E-16  1.67160014E-16
  1.40661749E-16  1.18781430E-16  1.12771390E-16  1.01278485E-16  8.87584248E-17
  8.14770416E-17  7.77713292E-17  7.28703876E-17  6.95977970E-17  6.25008721E-17
  5.78723753E-17  5.30452703E-17  5.10568369E-17  4.67063908E-17  3.95674516E-17
  3.69058482E-17  3.49688761E-17  3.02712983E-17  2.98238090E-17  2.91233136E-17
  2.70770565E-17  2.53181272E-17  2.36533668E-17  2.18306960E-17  2.13365392E-17
  2.00217838E-17  1.66719079E-17  1.63606405E-17  1.55685440E-17  1.35044509E-17
  1.27590349E-17  1.18993765E-17  1.09366224E-17  1.07847461E-17  9.37691087E-18
  8.44328349E-18  7.42250962E-18  7.13785236E-18  6.29728092E-18  6.11619750E-18
  5.92436370E-18  5.65555929E-18  4.82037693E-18  4.78272204E-18  4.41596418E-18
  3.94811633E-18  3.48845621E-18  3.15399834E-18  2.47001450E-18  2.13498361E-18
  1.85106039E-18  1.79905099E-18  1.25598068E-18  1.22785245E-18  1.06803666E-18
  8.68093183E-19  6.20170371E-19  4.20205617E-19  3.26541588E-19  1.33087558E-19
  1.23544057E-19  4.49044870E-20  2.02957303E-20 -5.74450467E-20 -2.18965049E-19
 -2.57823239E-19 -4.50903413E-19 -6.03674210E-19 -7.97154906E-19 -1.03765867E-18