benceno_GS                                                              
Freq      RB3LYP                                                      def2TZVP            
Number of atoms                            I               12
Info1-9                                    I   N=           9
          21          21        1002           0           0         100
           6          18        -502
Charge                                     I                0
Multiplicity                               I                1
Number of electrons                        I               42
Number of alpha electrons                  I               21
Number of beta electrons                   I               21
Number of basis functions                  I              222
Number of independent functions            I              222
Number of point charges in /Mol/           I                0
Number of translation vectors              I                0
Atomic numbers                             I   N=          12
           6           6           6           1           1           6
           6           1           1           6           1           1
Nuclear charges                            R   N=          12
  6.00000000E+00  6.00000000E+00  6.00000000E+00  1.00000000E+00  1.00000000E+00
  6.00000000E+00  6.00000000E+00  1.00000000E+00  1.00000000E+00  6.00000000E+00
  1.00000000E+00  1.00000000E+00
Current cartesian coordinates              R   N=          36
 -1.58823861E-07  2.62904936E+00  2.36141433E-17 -2.27682361E+00  1.31452454E+00
 -2.55216322E-16  2.27682345E+00  1.31452482E+00  3.02444608E-16 -4.04930741E+00
  2.33786839E+00 -4.72282975E-16  4.04930712E+00  2.33786888E+00  1.01540838E-15
 -2.27682345E+00 -1.31452482E+00 -2.55216322E-16  2.27682361E+00 -1.31452454E+00
  3.02444608E-16 -4.04930712E+00 -2.33786888E+00 -1.85976640E-16  4.04930741E+00
 -2.33786839E+00  5.19511261E-16  1.58823861E-07 -2.62904936E+00  2.36141433E-17
  2.82466609E-07 -4.67573728E+00  2.36141433E-17 -2.82466607E-07  4.67573728E+00
  2.36141433E-17
Force Field                                I                0
Int Atom Types                             I   N=          12
           0           0           0           0           0           0
           0           0           0           0           0           0
MM charges                                 R   N=          12
  0.00000000E+00  0.00000000E+00  0.00000000E+00  0.00000000E+00  0.00000000E+00
  0.00000000E+00  0.00000000E+00  0.00000000E+00  0.00000000E+00  0.00000000E+00
  0.00000000E+00  0.00000000E+00
Integer atomic weights                     I   N=          12
          12          12          12           1           1          12
          12           1           1          12           1           1
Real atomic weights                        R   N=          12
  1.20000000E+01  1.20000000E+01  1.20000000E+01  1.00782504E+00  1.00782504E+00
  1.20000000E+01  1.20000000E+01  1.00782504E+00  1.00782504E+00  1.20000000E+01
  1.00782504E+00  1.00782504E+00
Atom fragment info                         I   N=          12
           0           0           0           0           0           0
           0           0           0           0           0           0
Atom residue num                           I   N=          12
           0           0           0           0           0           0
           0           0           0           0           0           0
Nuclear spins                              I   N=          12
           0           0           0           1           1           0
           0           1           1           0           1           1
Nuclear ZEff                               R   N=          12
 -3.60000000E+00 -3.60000000E+00 -3.60000000E+00 -1.00000000E+00 -1.00000000E+00
 -3.60000000E+00 -3.60000000E+00 -1.00000000E+00 -1.00000000E+00 -3.60000000E+00
 -1.00000000E+00 -1.00000000E+00
Nuclear ZNuc                               R   N=          12
  6.00000000E+00  6.00000000E+00  6.00000000E+00  1.00000000E+00  1.00000000E+00
  6.00000000E+00  6.00000000E+00  1.00000000E+00  1.00000000E+00  6.00000000E+00
  1.00000000E+00  1.00000000E+00
Nuclear QMom                               R   N=          12
  0.00000000E+00  0.00000000E+00  0.00000000E+00  0.00000000E+00  0.00000000E+00
  0.00000000E+00  0.00000000E+00  0.00000000E+00  0.00000000E+00  0.00000000E+00
  0.00000000E+00  0.00000000E+00
Nuclear GFac                               R   N=          12
  0.00000000E+00  0.00000000E+00  0.00000000E+00  2.79284600E+00  2.79284600E+00
  0.00000000E+00  0.00000000E+00  2.79284600E+00  2.79284600E+00  0.00000000E+00
  2.79284600E+00  2.79284600E+00
MicOpt                                     I   N=          12
          -1          -1          -1          -1          -1          -1
          -1          -1          -1          -1          -1          -1
Number of contracted shells                I               90
Number of primitive shells                 I              156
Pure/Cartesian d shells                    I                0
Pure/Cartesian f shells                    I                0
Highest angular momentum                   I                3
Largest degree of contraction              I                6
Shell types                                I   N=          90
           0           0           0           0           0           1
           1           1          -2          -2          -3           0
           0           0           0           0           1           1
           1          -2          -2          -3           0           0
           0           0           0           1           1           1
          -2          -2          -3           0           0           0
           1           0           0           0           1           0
           0           0           0           0           1           1
           1          -2          -2          -3           0           0
           0           0           0           1           1           1
          -2          -2          -3           0           0           0
           1           0           0           0           1           0
           0           0           0           0           1           1
           1          -2          -2          -3           0           0
           0           1           0           0           0           1
Number of primitives per shell             I   N=          90
           6           2           1           1           1           4
           1           1           1           1           1           6
           2           1           1           1           4           1
           1           1           1           1           6           2
           1           1           1           4           1           1
           1           1           1           3           1           1
           1           3           1           1           1           6
           2           1           1           1           4           1
           1           1           1           1           6           2
           1           1           1           4           1           1
           1           1           1           3           1           1
           1           3           1           1           1           6
           2           1           1           1           4           1
           1           1           1           1           3           1
           1           1           3           1           1           1
Shell to atom map                          I   N=          90
           1           1           1           1           1           1
           1           1           1           1           1           2
           2           2           2           2           2           2
           2           2           2           2           3           3
           3           3           3           3           3           3
           3           3           3           4           4           4
           4           5           5           5           5           6
           6           6           6           6           6           6
           6           6           6           6           7           7
           7           7           7           7           7           7
           7           7           7           8           8           8
           8           9           9           9           9          10
          10          10          10          10          10          10
          10          10          10          10          11          11
          11          11          12          12          12          12
Primitive exponents                        R   N=         156
  1.35753497E+04  2.03523337E+03  4.63225624E+02  1.31200196E+02  4.28530159E+01
  1.55841858E+01  6.20671385E+00  2.57648965E+00  5.76963394E-01  2.29728314E-01
  9.51644400E-02  3.46972322E+01  7.95826228E+00  2.37808269E+00  8.14332082E-01
  2.88875473E-01  1.00568237E-01  1.09700000E+00  3.18000000E-01  7.61000000E-01
  1.35753497E+04  2.03523337E+03  4.63225624E+02  1.31200196E+02  4.28530159E+01
  1.55841858E+01  6.20671385E+00  2.57648965E+00  5.76963394E-01  2.29728314E-01
  9.51644400E-02  3.46972322E+01  7.95826228E+00  2.37808269E+00  8.14332082E-01
  2.88875473E-01  1.00568237E-01  1.09700000E+00  3.18000000E-01  7.61000000E-01
  1.35753497E+04  2.03523337E+03  4.63225624E+02  1.31200196E+02  4.28530159E+01
  1.55841858E+01  6.20671385E+00  2.57648965E+00  5.76963394E-01  2.29728314E-01
  9.51644400E-02  3.46972322E+01  7.95826228E+00  2.37808269E+00  8.14332082E-01
  2.88875473E-01  1.00568237E-01  1.09700000E+00  3.18000000E-01  7.61000000E-01
  3.40613410E+01  5.12357460E+00  1.16466260E+00  3.27230410E-01  1.03072410E-01
  8.00000000E-01  3.40613410E+01  5.12357460E+00  1.16466260E+00  3.27230410E-01
  1.03072410E-01  8.00000000E-01  1.35753497E+04  2.03523337E+03  4.63225624E+02
  1.31200196E+02  4.28530159E+01  1.55841858E+01  6.20671385E+00  2.57648965E+00
  5.76963394E-01  2.29728314E-01  9.51644400E-02  3.46972322E+01  7.95826228E+00
  2.37808269E+00  8.14332082E-01  2.88875473E-01  1.00568237E-01  1.09700000E+00
  3.18000000E-01  7.61000000E-01  1.35753497E+04  2.03523337E+03  4.63225624E+02
  1.31200196E+02  4.28530159E+01  1.55841858E+01  6.20671385E+00  2.57648965E+00
  5.76963394E-01  2.29728314E-01  9.51644400E-02  3.46972322E+01  7.95826228E+00
  2.37808269E+00  8.14332082E-01  2.88875473E-01  1.00568237E-01  1.09700000E+00
  3.18000000E-01  7.61000000E-01  3.40613410E+01  5.12357460E+00  1.16466260E+00
  3.27230410E-01  1.03072410E-01  8.00000000E-01  3.40613410E+01  5.12357460E+00
  1.16466260E+00  3.27230410E-01  1.03072410E-01  8.00000000E-01  1.35753497E+04
  2.03523337E+03  4.63225624E+02  1.31200196E+02  4.28530159E+01  1.55841858E+01
  6.20671385E+00  2.57648965E+00  5.76963394E-01  2.29728314E-01  9.51644400E-02
  3.46972322E+01  7.95826228E+00  2.37808269E+00  8.14332082E-01  2.88875473E-01
  1.00568237E-01  1.09700000E+00  3.18000000E-01  7.61000000E-01  3.40613410E+01
  5.12357460E+00  1.16466260E+00  3.27230410E-01  1.03072410E-01  8.00000000E-01
  3.40613410E+01  5.12357460E+00  1.16466260E+00  3.27230410E-01  1.03072410E-01
  8.00000000E-01
Contraction coefficients                   R   N=         156
  6.06455036E-04  4.69790889E-03  2.43324776E-02  9.73999683E-02  3.01955843E-01
  6.62336091E-01  6.55953085E-01  3.75856333E-01  1.00000000E+00  1.00000000E+00
  1.00000000E+00  1.13272200E-02  7.61696592E-02  3.01922522E-01  7.27850273E-01
  1.00000000E+00  1.00000000E+00  1.00000000E+00  1.00000000E+00  1.00000000E+00
  6.06455036E-04  4.69790889E-03  2.43324776E-02  9.73999683E-02  3.01955843E-01
  6.62336091E-01  6.55953085E-01  3.75856333E-01  1.00000000E+00  1.00000000E+00
  1.00000000E+00  1.13272200E-02  7.61696592E-02  3.01922522E-01  7.27850273E-01
  1.00000000E+00  1.00000000E+00  1.00000000E+00  1.00000000E+00  1.00000000E+00
  6.06455036E-04  4.69790889E-03  2.43324776E-02  9.73999683E-02  3.01955843E-01
  6.62336091E-01  6.55953085E-01  3.75856333E-01  1.00000000E+00  1.00000000E+00
  1.00000000E+00  1.13272200E-02  7.61696592E-02  3.01922522E-01  7.27850273E-01
  1.00000000E+00  1.00000000E+00  1.00000000E+00  1.00000000E+00  1.00000000E+00
  2.54393072E-02  1.90085949E-01  8.52441130E-01  1.00000000E+00  1.00000000E+00
  1.00000000E+00  2.54393072E-02  1.90085949E-01  8.52441130E-01  1.00000000E+00
  1.00000000E+00  1.00000000E+00  6.06455036E-04  4.69790889E-03  2.43324776E-02
  9.73999683E-02  3.01955843E-01  6.62336091E-01  6.55953085E-01  3.75856333E-01
  1.00000000E+00  1.00000000E+00  1.00000000E+00  1.13272200E-02  7.61696592E-02
  3.01922522E-01  7.27850273E-01  1.00000000E+00  1.00000000E+00  1.00000000E+00
  1.00000000E+00  1.00000000E+00  6.06455036E-04  4.69790889E-03  2.43324776E-02
  9.73999683E-02  3.01955843E-01  6.62336091E-01  6.55953085E-01  3.75856333E-01
  1.00000000E+00  1.00000000E+00  1.00000000E+00  1.13272200E-02  7.61696592E-02
  3.01922522E-01  7.27850273E-01  1.00000000E+00  1.00000000E+00  1.00000000E+00
  1.00000000E+00  1.00000000E+00  2.54393072E-02  1.90085949E-01  8.52441130E-01
  1.00000000E+00  1.00000000E+00  1.00000000E+00  2.54393072E-02  1.90085949E-01
  8.52441130E-01  1.00000000E+00  1.00000000E+00  1.00000000E+00  6.06455036E-04
  4.69790889E-03  2.43324776E-02  9.73999683E-02  3.01955843E-01  6.62336091E-01
  6.55953085E-01  3.75856333E-01  1.00000000E+00  1.00000000E+00  1.00000000E+00
  1.13272200E-02  7.61696592E-02  3.01922522E-01  7.27850273E-01  1.00000000E+00
  1.00000000E+00  1.00000000E+00  1.00000000E+00  1.00000000E+00  2.54393072E-02
  1.90085949E-01  8.52441130E-01  1.00000000E+00  1.00000000E+00  1.00000000E+00
  2.54393072E-02  1.90085949E-01  8.52441130E-01  1.00000000E+00  1.00000000E+00
  1.00000000E+00
Coordinates of each shell                  R   N=         270
 -2.64697796E-23  2.62904936E+00  2.93873588E-39 -2.64697796E-23  2.62904936E+00
  2.93873588E-39 -2.64697796E-23  2.62904936E+00  2.93873588E-39 -2.64697796E-23
  2.62904936E+00  2.93873588E-39 -2.64697796E-23  2.62904936E+00  2.93873588E-39
 -2.64697796E-23  2.62904936E+00  2.93873588E-39 -2.64697796E-23  2.62904936E+00
  2.93873588E-39 -2.64697796E-23  2.62904936E+00  2.93873588E-39 -2.64697796E-23
  2.62904936E+00  2.93873588E-39 -2.64697796E-23  2.62904936E+00  2.93873588E-39
 -2.64697796E-23  2.62904936E+00  2.93873588E-39 -2.27682353E+00  1.31452468E+00
  0.00000000E+00 -2.27682353E+00  1.31452468E+00  0.00000000E+00 -2.27682353E+00
  1.31452468E+00  0.00000000E+00 -2.27682353E+00  1.31452468E+00  0.00000000E+00
 -2.27682353E+00  1.31452468E+00  0.00000000E+00 -2.27682353E+00  1.31452468E+00
  0.00000000E+00 -2.27682353E+00  1.31452468E+00  0.00000000E+00 -2.27682353E+00
  1.31452468E+00  0.00000000E+00 -2.27682353E+00  1.31452468E+00  0.00000000E+00
 -2.27682353E+00  1.31452468E+00  0.00000000E+00 -2.27682353E+00  1.31452468E+00
  0.00000000E+00  2.27682353E+00  1.31452468E+00 -4.93038066E-32  2.27682353E+00
  1.31452468E+00 -4.93038066E-32  2.27682353E+00  1.31452468E+00 -4.93038066E-32
  2.27682353E+00  1.31452468E+00 -4.93038066E-32  2.27682353E+00  1.31452468E+00
 -4.93038066E-32  2.27682353E+00  1.31452468E+00 -4.93038066E-32  2.27682353E+00
  1.31452468E+00 -4.93038066E-32  2.27682353E+00  1.31452468E+00 -4.93038066E-32
  2.27682353E+00  1.31452468E+00 -4.93038066E-32  2.27682353E+00  1.31452468E+00
 -4.93038066E-32  2.27682353E+00  1.31452468E+00 -4.93038066E-32 -4.04930726E+00
  2.33786864E+00  9.86076132E-32 -4.04930726E+00  2.33786864E+00  9.86076132E-32
 -4.04930726E+00  2.33786864E+00  9.86076132E-32 -4.04930726E+00  2.33786864E+00
  9.86076132E-32  4.04930726E+00  2.33786864E+00  4.95897118E-16  4.04930726E+00
  2.33786864E+00  4.95897118E-16  4.04930726E+00  2.33786864E+00  4.95897118E-16
  4.04930726E+00  2.33786864E+00  4.95897118E-16 -2.27682353E+00 -1.31452468E+00
  4.93038066E-32 -2.27682353E+00 -1.31452468E+00  4.93038066E-32 -2.27682353E+00
 -1.31452468E+00  4.93038066E-32 -2.27682353E+00 -1.31452468E+00  4.93038066E-32
 -2.27682353E+00 -1.31452468E+00  4.93038066E-32 -2.27682353E+00 -1.31452468E+00
  4.93038066E-32 -2.27682353E+00 -1.31452468E+00  4.93038066E-32 -2.27682353E+00
 -1.31452468E+00  4.93038066E-32 -2.27682353E+00 -1.31452468E+00  4.93038066E-32
 -2.27682353E+00 -1.31452468E+00  4.93038066E-32 -2.27682353E+00 -1.31452468E+00
  4.93038066E-32  2.27682353E+00 -1.31452468E+00 -9.86076132E-32  2.27682353E+00
 -1.31452468E+00 -9.86076132E-32  2.27682353E+00 -1.31452468E+00 -9.86076132E-32
  2.27682353E+00 -1.31452468E+00 -9.86076132E-32  2.27682353E+00 -1.31452468E+00
 -9.86076132E-32  2.27682353E+00 -1.31452468E+00 -9.86076132E-32  2.27682353E+00
 -1.31452468E+00 -9.86076132E-32  2.27682353E+00 -1.31452468E+00 -9.86076132E-32
  2.27682353E+00 -1.31452468E+00 -9.86076132E-32  2.27682353E+00 -1.31452468E+00
 -9.86076132E-32  2.27682353E+00 -1.31452468E+00 -9.86076132E-32 -4.04930726E+00
 -2.33786864E+00  2.86306335E-16 -4.04930726E+00 -2.33786864E+00  2.86306335E-16
 -4.04930726E+00 -2.33786864E+00  2.86306335E-16 -4.04930726E+00 -2.33786864E+00
  2.86306335E-16  4.04930726E+00 -2.33786864E+00  9.86076132E-32  4.04930726E+00
 -2.33786864E+00  9.86076132E-32  4.04930726E+00 -2.33786864E+00  9.86076132E-32
  4.04930726E+00 -2.33786864E+00  9.86076132E-32  3.21965720E-16 -2.62904936E+00
  6.29915097E-34  3.21965720E-16 -2.62904936E+00  6.29915097E-34  3.21965720E-16
 -2.62904936E+00  6.29915097E-34  3.21965720E-16 -2.62904936E+00  6.29915097E-34
  3.21965720E-16 -2.62904936E+00  6.29915097E-34  3.21965720E-16 -2.62904936E+00
  6.29915097E-34  3.21965720E-16 -2.62904936E+00  6.29915097E-34  3.21965720E-16
 -2.62904936E+00  6.29915097E-34  3.21965720E-16 -2.62904936E+00  6.29915097E-34
  3.21965720E-16 -2.62904936E+00  6.29915097E-34  3.21965720E-16 -2.62904936E+00
  6.29915097E-34  3.99680289E-15 -4.67573728E+00  3.13042727E-32  3.99680289E-15
 -4.67573728E+00  3.13042727E-32  3.99680289E-15 -4.67573728E+00  3.13042727E-32
  3.99680289E-15 -4.67573728E+00  3.13042727E-32 -1.77635684E-15  4.67573728E+00
  1.31259308E-31 -1.77635684E-15  4.67573728E+00  1.31259308E-31 -1.77635684E-15
  4.67573728E+00  1.31259308E-31 -1.77635684E-15  4.67573728E+00  1.31259308E-31
Constraint Structure                       R   N=          36
 -2.64697796E-23  2.62904936E+00  2.93873588E-39 -2.27682353E+00  1.31452468E+00
  0.00000000E+00  2.27682353E+00  1.31452468E+00 -4.93038066E-32 -4.04930726E+00
  2.33786864E+00  9.86076132E-32  4.04930726E+00  2.33786864E+00  4.95897118E-16
 -2.27682353E+00 -1.31452468E+00  4.93038066E-32  2.27682353E+00 -1.31452468E+00
 -9.86076132E-32 -4.04930726E+00 -2.33786864E+00  2.86306335E-16  4.04930726E+00
 -2.33786864E+00  9.86076132E-32  3.21965720E-16 -2.62904936E+00  6.29915097E-34
  3.99680289E-15 -4.67573728E+00  3.13042727E-32 -1.77635684E-15  4.67573728E+00
  1.31259308E-31
Num ILSW                                   I              100
ILSW                                       I   N=         100
           0           0           0           0           2           0
           0           0           0           0         402          -1
           0           0           0           0           2           0
           0           0           0           0           1           0
           1           0           0           0           0           0
           0           0      100000           0          -1           0
           0           0           0           0           0           0
           0           0           0           1           0           0
           0           0           1           0           0           0
           0           0           4          41           0           0
           0           0           5           0           0           0
           0           0           0          12           0           0
           0           0           0           0           0           0
           0           0           0           0           0           0
           0           0           0           0           0           0
           0           0           0           0           0           0
           0           0           0           0
Num RLSW                                   I               41
RLSW                                       R   N=          41
  8.00000000E-01  7.20000000E-01  1.00000000E+00  8.10000000E-01  2.00000000E-01
  0.00000000E+00  0.00000000E+00  1.00000000E+00  0.00000000E+00  0.00000000E+00
  0.00000000E+00  0.00000000E+00  1.00000000E+00  0.00000000E+00  0.00000000E+00
  0.00000000E+00  0.00000000E+00  1.00000000E+00  0.00000000E+00  0.00000000E+00
  0.00000000E+00  0.00000000E+00  1.00000000E+00  0.00000000E+00  0.00000000E+00
  0.00000000E+00  0.00000000E+00  1.00000000E+00  0.00000000E+00  0.00000000E+00
  0.00000000E+00  0.00000000E+00  1.00000000E+00  0.00000000E+00  0.00000000E+00
  0.00000000E+00  0.00000000E+00  0.00000000E+00  1.00000000E+00  1.00000000E+00
  0.00000000E+00
ECP-MxAtEC                                 I           250000
ECP-MaxLECP                                I               10
ECP-MaxAtL                                 I          2250000
ECP-MxTECP                                 I         11250000
ECP-LenNCZ                                 I                0
ECP-KFirst                                 I   N=         120
           0           0           0           0           0           0
           0           0           0           0           0           0
           0           0           0           0           0           0
           0           0           0           0           0           0
           0           0           0           0           0           0
           0           0           0           0           0           0
           0           0           0           0           0           0
           0           0           0           0           0           0
           0           0           0           0           0           0
           0           0           0           0           0           0
           0           0           0           0           0           0
           0           0           0           0           0           0
           0           0           0           0           0           0
           0           0           0           0           0           0
           0           0           0           0           0           0
           0           0           0           0           0           0
           0           0           0           0           0           0
           0           0           0           0           0           0
           0           0           0           0           0           0
           0           0           0           0           0           0
ECP-KLast                                  I   N=         120
           0           0           0           0           0           0
           0           0           0           0           0           0
           0           0           0           0           0           0
           0           0           0           0           0           0
           0           0           0           0           0           0
           0           0           0           0           0           0
           0           0           0           0           0           0
           0           0           0           0           0           0
           0           0           0           0           0           0
           0           0           0           0           0           0
           0           0           0           0           0           0
           0           0           0           0           0           0
           0           0           0           0           0           0
           0           0           0           0           0           0
           0           0           0           0           0           0
           0           0           0           0           0           0
           0           0           0           0           0           0
           0           0           0           0           0           0
           0           0           0           0           0           0
           0           0           0           0           0           0
ECP-LMax                                   I   N=          12
           0           0           0           0           0           0
           0           0           0           0           0           0
ECP-LPSkip                                 I   N=          12
           1           1           1           1           1           1
           1           1           1           1           1           1
ECP-RNFroz                                 R   N=          12
  0.00000000E+00  0.00000000E+00  0.00000000E+00  0.00000000E+00  0.00000000E+00
  0.00000000E+00  0.00000000E+00  0.00000000E+00  0.00000000E+00  0.00000000E+00
  0.00000000E+00  0.00000000E+00
ECP-NLP                                    I                0
ECP-CLP1                                   R      0.000000000000000E+00
ECP-CLP2                                   R      0.000000000000000E+00
ECP-ZLP                                    R      0.000000000000000E+00
MxBond                                     I                3
NBond                                      I   N=          12
           3           3           3           1           1           3
           3           1           1           3           1           1
IBond                                      I   N=          36
           2           3          12           1           4           6
           1           5           7           2           0           0
           3           0           0           2           8          10
           3           9          10           6           0           0
           7           0           0           6           7          11
          10           0           0           1           0           0
RBond                                      R   N=          36
  1.50000000E+00  1.50000000E+00  1.00000000E+00  1.50000000E+00  1.00000000E+00
  1.50000000E+00  1.50000000E+00  1.00000000E+00  1.50000000E+00  1.00000000E+00
  0.00000000E+00  0.00000000E+00  1.00000000E+00  0.00000000E+00  0.00000000E+00
  1.50000000E+00  1.00000000E+00  1.50000000E+00  1.50000000E+00  1.00000000E+00
  1.50000000E+00  1.00000000E+00  0.00000000E+00  0.00000000E+00  1.00000000E+00
  0.00000000E+00  0.00000000E+00  1.50000000E+00  1.50000000E+00  1.00000000E+00
  1.00000000E+00  0.00000000E+00  0.00000000E+00  1.00000000E+00  0.00000000E+00
  0.00000000E+00
Virial Ratio                               R      2.005343682198906E+00
SCF Energy                                 R     -2.323373673271484E+02
Total Energy                               R     -2.323373673271484E+02
RMS Force                                  R      6.273737605179117E-05
RMS Density                                R      6.709008943678391E-10
External E-field                           R   N=          35
  0.00000000E+00  0.00000000E+00  0.00000000E+00  0.00000000E+00  0.00000000E+00
  0.00000000E+00  0.00000000E+00  0.00000000E+00  0.00000000E+00  0.00000000E+00
  0.00000000E+00  0.00000000E+00  0.00000000E+00  0.00000000E+00  0.00000000E+00
  0.00000000E+00  0.00000000E+00  0.00000000E+00  0.00000000E+00  0.00000000E+00
  0.00000000E+00  0.00000000E+00  0.00000000E+00  0.00000000E+00  0.00000000E+00
  0.00000000E+00  0.00000000E+00  0.00000000E+00  0.00000000E+00  0.00000000E+00
  0.00000000E+00  0.00000000E+00  0.00000000E+00  0.00000000E+00  0.00000000E+00
IOpCl                                      I                0
IROHF                                      I                0
Alpha Orbital Energies                     R   N=         222
 -1.01770290E+01 -1.01767917E+01 -1.01767917E+01 -1.01762091E+01 -1.01762091E+01
 -1.01759309E+01 -8.58244755E-01 -7.49482082E-01 -7.49482082E-01 -6.06322679E-01
 -6.06322679E-01 -5.28546828E-01 -4.64347228E-01 -4.51564049E-01 -4.25965843E-01
 -4.25965843E-01 -3.73183222E-01 -3.48682170E-01 -3.48682170E-01 -2.59324840E-01
 -2.59324840E-01 -1.44389070E-02 -1.44389070E-02  4.46691618E-02  7.65075403E-02
  7.65075403E-02  1.03512847E-01  1.03512847E-01  1.26263687E-01  1.39964500E-01
  1.48889846E-01  2.05439203E-01  2.08663986E-01  2.14464788E-01  2.14464788E-01
  2.31888906E-01  2.31888906E-01  2.46849764E-01  2.46849764E-01  2.67990548E-01
  2.67990548E-01  3.25928497E-01  3.26102802E-01  3.26102802E-01  3.55713745E-01
  3.55713745E-01  3.81141599E-01  4.02794083E-01  4.11606197E-01  4.11606197E-01
  4.35468745E-01  4.35468745E-01  4.37432008E-01  4.61501733E-01  4.62060872E-01
  4.88294802E-01  4.88294802E-01  4.90214601E-01  5.05580227E-01  5.05580227E-01
  6.42554366E-01  6.42554366E-01  6.50837443E-01  6.78199811E-01  6.84725537E-01
  7.45023340E-01  7.45023340E-01  7.53514275E-01  7.53514275E-01  7.98676756E-01
  8.43160493E-01  8.43160493E-01  8.50121594E-01  8.87002049E-01  8.89371837E-01
  9.98998574E-01  9.98998574E-01  1.00853661E+00  1.00853661E+00  1.04933422E+00
  1.04933422E+00  1.16516035E+00  1.17310062E+00  1.17310062E+00  1.20179455E+00
  1.20179455E+00  1.22019745E+00  1.22019745E+00  1.24798631E+00  1.24798631E+00
  1.28167982E+00  1.37386386E+00  1.37416922E+00  1.38381609E+00  1.44880439E+00
  1.44880439E+00  1.47699151E+00  1.47699151E+00  1.48040916E+00  1.48040916E+00
  1.59458989E+00  1.60666522E+00  1.64838624E+00  1.66220897E+00  1.66220897E+00
  1.67706339E+00  1.68804060E+00  1.68804060E+00  1.70063381E+00  1.70063381E+00
  1.76138776E+00  1.83717920E+00  1.90220548E+00  1.90220548E+00  2.03224134E+00
  2.03224134E+00  2.06130278E+00  2.07253779E+00  2.07253779E+00  2.08196657E+00