 Entering Gaussian System, Link 0=g09
 Input=benceno.com
 Output=benceno.log
 Initial command:
 /home/lmod/software/Binaries/g09/D01/l1.exe "/home/courses/student25/TD-DFT/benceno/exercise/Gau-124792.inp" -scrdir="/home/courses/student25/TD-DFT/benceno/exercise/"
 Entering Link 1 = /home/lmod/software/Binaries/g09/D01/l1.exe PID=    124793.
  
 Copyright (c) 1988,1990,1992,1993,1995,1998,2003,2009,2013,
            Gaussian, Inc.  All Rights Reserved.
  
 This is part of the Gaussian(R) 09 program.  It is based on
 the Gaussian(R) 03 system (copyright 2003, Gaussian, Inc.),
 the Gaussian(R) 98 system (copyright 1998, Gaussian, Inc.),
 the Gaussian(R) 94 system (copyright 1995, Gaussian, Inc.),
 the Gaussian 92(TM) system (copyright 1992, Gaussian, Inc.),
 the Gaussian 90(TM) system (copyright 1990, Gaussian, Inc.),
 the Gaussian 88(TM) system (copyright 1988, Gaussian, Inc.),
 the Gaussian 86(TM) system (copyright 1986, Carnegie Mellon
 University), and the Gaussian 82(TM) system (copyright 1983,
 Carnegie Mellon University). Gaussian is a federally registered
 trademark of Gaussian, Inc.
  
 This software contains proprietary and confidential information,
 including trade secrets, belonging to Gaussian, Inc.
  
 This software is provided under written license and may be
 used, copied, transmitted, or stored only in accord with that
 written license.
  
 The following legend is applicable only to US Government
 contracts under FAR:
  
                    RESTRICTED RIGHTS LEGEND
  
 Use, reproduction and disclosure by the US Government is
 subject to restrictions as set forth in subparagraphs (a)
 and (c) of the Commercial Computer Software - Restricted
 Rights clause in FAR 52.227-19.
  
 Gaussian, Inc.
 340 Quinnipiac St., Bldg. 40, Wallingford CT 06492
  
  
 ---------------------------------------------------------------
 Warning -- This program may not be used in any manner that
 competes with the business of Gaussian, Inc. or will provide
 assistance to any competitor of Gaussian, Inc.  The licensee
 of this program is prohibited from giving any competitor of
 Gaussian, Inc. access to this program.  By using this program,
 the user acknowledges that Gaussian, Inc. is engaged in the
 business of creating and licensing software in the field of
 computational chemistry and represents and warrants to the
 licensee that it is not a competitor of Gaussian, Inc. and that
 it will not use this program in any manner prohibited above.
 ---------------------------------------------------------------
  

 Cite this work as:
 Gaussian 09, Revision D.01,
 M. J. Frisch, G. W. Trucks, H. B. Schlegel, G. E. Scuseria, 
 M. A. Robb, J. R. Cheeseman, G. Scalmani, V. Barone, B. Mennucci, 
 G. A. Petersson, H. Nakatsuji, M. Caricato, X. Li, H. P. Hratchian, 
 A. F. Izmaylov, J. Bloino, G. Zheng, J. L. Sonnenberg, M. Hada, 
 M. Ehara, K. Toyota, R. Fukuda, J. Hasegawa, M. Ishida, T. Nakajima, 
 Y. Honda, O. Kitao, H. Nakai, T. Vreven, J. A. Montgomery, Jr., 
 J. E. Peralta, F. Ogliaro, M. Bearpark, J. J. Heyd, E. Brothers, 
 K. N. Kudin, V. N. Staroverov, T. Keith, R. Kobayashi, J. Normand, 
 K. Raghavachari, A. Rendell, J. C. Burant, S. S. Iyengar, J. Tomasi, 
 M. Cossi, N. Rega, J. M. Millam, M. Klene, J. E. Knox, J. B. Cross, 
 V. Bakken, C. Adamo, J. Jaramillo, R. Gomperts, R. E. Stratmann, 
 O. Yazyev, A. J. Austin, R. Cammi, C. Pomelli, J. W. Ochterski, 
 R. L. Martin, K. Morokuma, V. G. Zakrzewski, G. A. Voth, 
 P. Salvador, J. J. Dannenberg, S. Dapprich, A. D. Daniels, 
 O. Farkas, J. B. Foresman, J. V. Ortiz, J. Cioslowski, 
 and D. J. Fox, Gaussian, Inc., Wallingford CT, 2013.
 
 ******************************************
 Gaussian 09:  ES64L-G09RevD.01 24-Apr-2013
                 5-Aug-2025 
 ******************************************
 %nprocshared=4
 Will use up to    4 processors via shared memory.
 %chk=benceno_GS.chk
 %mem=2GB
 --------------------------
 #P B3LYP/Def2TZVP opt freq
 --------------------------
 1/14=-1,18=20,19=15,26=3,38=1/1,3;
 2/9=110,12=2,17=6,18=5,40=1/2;
 3/5=44,7=101,11=2,16=1,25=1,30=1,71=1,74=-5/1,2,3;
 4//1;
 5/5=2,38=5/2;
 6/7=2,8=2,9=2,10=2,28=1/1;
 7//1,2,3,16;
 1/14=-1,18=20,19=15,26=3/3(2);
 2/9=110/2;
 99//99;
 2/9=110/2;
 3/5=44,7=101,11=2,16=1,25=1,30=1,71=1,74=-5/1,2,3;
 4/5=5,16=3,69=1/1;
 5/5=2,38=5/2;
 7//1,2,3,16;
 1/14=-1,18=20,19=15,26=3/3(-5);
 2/9=110/2;
 6/7=2,8=2,9=2,10=2,19=2,28=1/1;
 99/9=1/99;
 Leave Link    1 at Tue Aug  5 11:20:50 2025, MaxMem=   268435456 cpu:         0.1
 (Enter /home/lmod/software/Binaries/g09/D01/l101.exe)
 ----------
 benceno_GS
 ----------
 Symbolic Z-matrix:
 Charge =  0 Multiplicity = 1
 6                     0.        1.39123   0. 
 6                    -1.20484   0.69562   0. 
 6                     1.20484   0.69562   0. 
 1                    -2.1428    1.23715   0. 
 1                     2.1428    1.23715   0. 
 6                    -1.20484  -0.69562   0. 
 6                     1.20484  -0.69562   0. 
 1                    -2.1428   -1.23715   0. 
 1                     2.1428   -1.23715   0. 
 6                     0.       -1.39123   0. 
 1                     0.       -2.47429   0. 
 1                     0.        2.47429   0. 
 
 NAtoms=     12 NQM=       12 NQMF=       0 NMMI=      0 NMMIF=      0
                NMic=       0 NMicF=      0.
                    Isotopes and Nuclear Properties:
 (Nuclear quadrupole moments (NQMom) in fm**2, nuclear magnetic moments (NMagM)
  in nuclear magnetons)

  Atom         1           2           3           4           5           6           7           8           9          10
 IAtWgt=          12          12          12           1           1          12          12           1           1          12
 AtmWgt=  12.0000000  12.0000000  12.0000000   1.0078250   1.0078250  12.0000000  12.0000000   1.0078250   1.0078250  12.0000000
 NucSpn=           0           0           0           1           1           0           0           1           1           0
 AtZEff=   0.0000000   0.0000000   0.0000000   0.0000000   0.0000000   0.0000000   0.0000000   0.0000000   0.0000000   0.0000000
 NQMom=    0.0000000   0.0000000   0.0000000   0.0000000   0.0000000   0.0000000   0.0000000   0.0000000   0.0000000   0.0000000
 NMagM=    0.0000000   0.0000000   0.0000000   2.7928460   2.7928460   0.0000000   0.0000000   2.7928460   2.7928460   0.0000000
 AtZNuc=   6.0000000   6.0000000   6.0000000   1.0000000   1.0000000   6.0000000   6.0000000   1.0000000   1.0000000   6.0000000

  Atom        11          12
 IAtWgt=           1           1
 AtmWgt=   1.0078250   1.0078250
 NucSpn=           1           1
 AtZEff=   0.0000000   0.0000000
 NQMom=    0.0000000   0.0000000
 NMagM=    2.7928460   2.7928460
 AtZNuc=   1.0000000   1.0000000
 Leave Link  101 at Tue Aug  5 11:20:50 2025, MaxMem=   268435456 cpu:         0.1
 (Enter /home/lmod/software/Binaries/g09/D01/l103.exe)

 GradGradGradGradGradGradGradGradGradGradGradGradGradGradGradGradGradGrad
 Berny optimization.
 Initialization pass.
                           ----------------------------
                           !    Initial Parameters    !
                           ! (Angstroms and Degrees)  !
 --------------------------                            --------------------------
 ! Name  Definition              Value          Derivative Info.                !
 --------------------------------------------------------------------------------
 ! R1    R(1,2)                  1.3912         estimate D2E/DX2                !
 ! R2    R(1,3)                  1.3912         estimate D2E/DX2                !
 ! R3    R(1,12)                 1.0831         estimate D2E/DX2                !
 ! R4    R(2,4)                  1.0831         estimate D2E/DX2                !
 ! R5    R(2,6)                  1.3912         estimate D2E/DX2                !
 ! R6    R(3,5)                  1.0831         estimate D2E/DX2                !
 ! R7    R(3,7)                  1.3912         estimate D2E/DX2                !
 ! R8    R(6,8)                  1.0831         estimate D2E/DX2                !
 ! R9    R(6,10)                 1.3912         estimate D2E/DX2                !
 ! R10   R(7,9)                  1.0831         estimate D2E/DX2                !
 ! R11   R(7,10)                 1.3912         estimate D2E/DX2                !
 ! R12   R(10,11)                1.0831         estimate D2E/DX2                !
 ! A1    A(2,1,3)              120.0            estimate D2E/DX2                !
 ! A2    A(2,1,12)             120.0            estimate D2E/DX2                !
 ! A3    A(3,1,12)             120.0            estimate D2E/DX2                !
 ! A4    A(1,2,4)              119.9999         estimate D2E/DX2                !
 ! A5    A(1,2,6)              120.0            estimate D2E/DX2                !
 ! A6    A(4,2,6)              120.0            estimate D2E/DX2                !
 ! A7    A(1,3,5)              119.9999         estimate D2E/DX2                !
 ! A8    A(1,3,7)              120.0            estimate D2E/DX2                !
 ! A9    A(5,3,7)              120.0            estimate D2E/DX2                !
 ! A10   A(2,6,8)              120.0            estimate D2E/DX2                !
 ! A11   A(2,6,10)             120.0            estimate D2E/DX2                !
 ! A12   A(8,6,10)             119.9999         estimate D2E/DX2                !
 ! A13   A(3,7,9)              120.0            estimate D2E/DX2                !
 ! A14   A(3,7,10)             120.0            estimate D2E/DX2                !
 ! A15   A(9,7,10)             119.9999         estimate D2E/DX2                !
 ! A16   A(6,10,7)             120.0            estimate D2E/DX2                !
 ! A17   A(6,10,11)            120.0            estimate D2E/DX2                !
 ! A18   A(7,10,11)            120.0            estimate D2E/DX2                !
 ! D1    D(3,1,2,4)            180.0            estimate D2E/DX2                !
 ! D2    D(3,1,2,6)              0.0            estimate D2E/DX2                !
 ! D3    D(12,1,2,4)             0.0            estimate D2E/DX2                !
 ! D4    D(12,1,2,6)           180.0            estimate D2E/DX2                !
 ! D5    D(2,1,3,5)            180.0            estimate D2E/DX2                !
 ! D6    D(2,1,3,7)              0.0            estimate D2E/DX2                !
 ! D7    D(12,1,3,5)             0.0            estimate D2E/DX2                !
 ! D8    D(12,1,3,7)           180.0            estimate D2E/DX2                !
 ! D9    D(1,2,6,8)            180.0            estimate D2E/DX2                !
 ! D10   D(1,2,6,10)             0.0            estimate D2E/DX2                !
 ! D11   D(4,2,6,8)              0.0            estimate D2E/DX2                !
 ! D12   D(4,2,6,10)           180.0            estimate D2E/DX2                !
 ! D13   D(1,3,7,9)            180.0            estimate D2E/DX2                !
 ! D14   D(1,3,7,10)             0.0            estimate D2E/DX2                !
 ! D15   D(5,3,7,9)              0.0            estimate D2E/DX2                !
 ! D16   D(5,3,7,10)           180.0            estimate D2E/DX2                !
 ! D17   D(2,6,10,7)             0.0            estimate D2E/DX2                !
 ! D18   D(2,6,10,11)          180.0            estimate D2E/DX2                !
 ! D19   D(8,6,10,7)           180.0            estimate D2E/DX2                !
 ! D20   D(8,6,10,11)            0.0            estimate D2E/DX2                !
 ! D21   D(3,7,10,6)             0.0            estimate D2E/DX2                !
 ! D22   D(3,7,10,11)          180.0            estimate D2E/DX2                !
 ! D23   D(9,7,10,6)           180.0            estimate D2E/DX2                !
 ! D24   D(9,7,10,11)            0.0            estimate D2E/DX2                !
 --------------------------------------------------------------------------------
 Trust Radius=3.00D-01 FncErr=1.00D-07 GrdErr=1.00D-06
 Number of steps in this run=     64 maximum allowed number of steps=    100.
 GradGradGradGradGradGradGradGradGradGradGradGradGradGradGradGradGradGrad

 Leave Link  103 at Tue Aug  5 11:20:50 2025, MaxMem=   268435456 cpu:         0.0
 (Enter /home/lmod/software/Binaries/g09/D01/l202.exe)
                          Input orientation:                          
 ---------------------------------------------------------------------
 Center     Atomic      Atomic             Coordinates (Angstroms)
 Number     Number       Type             X           Y           Z
 ---------------------------------------------------------------------
      1          6           0        0.000000    1.391233    0.000000
      2          6           0       -1.204843    0.695616    0.000000
      3          6           0        1.204843    0.695616    0.000000
      4          1           0       -2.142801    1.237147    0.000000
      5          1           0        2.142801    1.237147    0.000000
      6          6           0       -1.204843   -0.695616    0.000000
      7          6           0        1.204843   -0.695616    0.000000
      8          1           0       -2.142801   -1.237147    0.000000
      9          1           0        2.142801   -1.237147    0.000000
     10          6           0        0.000000   -1.391233    0.000000
     11          1           0        0.000000   -2.474293    0.000000
     12          1           0        0.000000    2.474293    0.000000
 ---------------------------------------------------------------------
                    Distance matrix (angstroms):
                    1          2          3          4          5
     1  C    0.000000
     2  C    1.391233   0.000000
     3  C    1.391233   2.409686   0.000000
     4  H    2.148334   1.083061   3.391161   0.000000
     5  H    2.148334   3.391161   1.083061   4.285602   0.000000
     6  C    2.409686   1.391232   2.782465   2.148334   3.865526
     7  C    2.409686   2.782465   1.391232   3.865526   2.148334
     8  H    3.391162   2.148334   3.865526   2.474294   4.948587
     9  H    3.391162   3.865526   2.148334   4.948587   2.474294
    10  C    2.782466   2.409686   2.409686   3.391162   3.391162
    11  H    3.865526   3.391161   3.391161   4.285602   4.285602
    12  H    1.083060   2.148334   2.148334   2.474293   2.474293
                    6          7          8          9         10
     6  C    0.000000
     7  C    2.409686   0.000000
     8  H    1.083061   3.391161   0.000000
     9  H    3.391161   1.083061   4.285602   0.000000
    10  C    1.391233   1.391233   2.148334   2.148334   0.000000
    11  H    2.148334   2.148334   2.474293   2.474293   1.083060
    12  H    3.391161   3.391161   4.285602   4.285602   3.865526
                   11         12
    11  H    0.000000
    12  H    4.948586   0.000000
 Stoichiometry    C6H6
 Framework group  D6H[3C2'(HC.CH)]
 Deg. of freedom     2
 Full point group                 D6H     NOp  24
 Largest Abelian subgroup         D2H     NOp   8
 Largest concise Abelian subgroup D2      NOp   4
                         Standard orientation:                         
 ---------------------------------------------------------------------
 Center     Atomic      Atomic             Coordinates (Angstroms)
 Number     Number       Type             X           Y           Z
 ---------------------------------------------------------------------
      1          6           0        0.000000    1.391233   -0.000000
      2          6           0       -1.204843    0.695616   -0.000000
      3          6           0        1.204843    0.695616   -0.000000
      4          1           0       -2.142801    1.237147   -0.000000
      5          1           0        2.142801    1.237147    0.000000
      6          6           0       -1.204843   -0.695616   -0.000000
      7          6           0        1.204843   -0.695616   -0.000000
      8          1           0       -2.142801   -1.237147   -0.000000
      9          1           0        2.142801   -1.237147   -0.000000
     10          6           0       -0.000000   -1.391233   -0.000000
     11          1           0       -0.000000   -2.474294   -0.000000
     12          1           0        0.000000    2.474294   -0.000000
 ---------------------------------------------------------------------
 Rotational constants (GHZ):      5.7306252      5.7306252      2.8653126
 Leave Link  202 at Tue Aug  5 11:20:50 2025, MaxMem=   268435456 cpu:         0.1
 (Enter /home/lmod/software/Binaries/g09/D01/l301.exe)
 Standard basis: def2TZVP (5D, 7F)
 Ernie: Thresh=  0.10000D-02 Tol=  0.10000D-05 Strict=F.
 There are    51 symmetry adapted cartesian basis functions of AG  symmetry.
 There are    39 symmetry adapted cartesian basis functions of B1G symmetry.
 There are    15 symmetry adapted cartesian basis functions of B2G symmetry.
 There are    21 symmetry adapted cartesian basis functions of B3G symmetry.
 There are    15 symmetry adapted cartesian basis functions of AU  symmetry.
 There are    21 symmetry adapted cartesian basis functions of B1U symmetry.
 There are    51 symmetry adapted cartesian basis functions of B2U symmetry.
 There are    39 symmetry adapted cartesian basis functions of B3U symmetry.
 There are    44 symmetry adapted basis functions of AG  symmetry.
 There are    34 symmetry adapted basis functions of B1G symmetry.
 There are    14 symmetry adapted basis functions of B2G symmetry.
 There are    19 symmetry adapted basis functions of B3G symmetry.
 There are    14 symmetry adapted basis functions of AU  symmetry.
 There are    19 symmetry adapted basis functions of B1U symmetry.
 There are    44 symmetry adapted basis functions of B2U symmetry.
 There are    34 symmetry adapted basis functions of B3U symmetry.
   222 basis functions,   354 primitive gaussians,   252 cartesian basis functions
    21 alpha electrons       21 beta electrons
       nuclear repulsion energy       203.9661241995 Hartrees.
 IExCor=  402 DFT=T Ex+Corr=B3LYP ExCW=0 ScaHFX=  0.200000
 ScaDFX=  0.800000  0.720000  1.000000  0.810000 ScalE2=  1.000000  1.000000
 IRadAn=      0 IRanWt=     -1 IRanGd=            0 ICorTp=0 IEmpDi=  4
 NAtoms=   12 NActive=   12 NUniq=    2 SFac= 4.00D+00 NAtFMM=   60 NAOKFM=F Big=F
 Integral buffers will be    131072 words long.
 Raffenetti 2 integral format.
 Two-electron integral symmetry is turned on.
 Leave Link  301 at Tue Aug  5 11:20:51 2025, MaxMem=   268435456 cpu:         0.1
 (Enter /home/lmod/software/Binaries/g09/D01/l302.exe)
 NPDir=0 NMtPBC=     1 NCelOv=     1 NCel=       1 NClECP=     1 NCelD=      1
         NCelK=      1 NCelE2=     1 NClLst=     1 CellRange=     0.0.
 One-electron integrals computed using PRISM.
 One-electron integral symmetry used in STVInt
  24 Symmetry operations used in ECPInt.
 ECPInt:  NShTT=    4095 NPrTT=   12396 LenC2=    4075 LenP2D=   10419.
 LDataN:  DoStor=T MaxTD1= 6 Len=  172
 NBasis=   222 RedAO= T EigKep=  8.51D-06  NBF=    44    34    14    19    14    19    44    34
 NBsUse=   222 1.00D-06 EigRej= -1.00D+00 NBFU=    44    34    14    19    14    19    44    34
 Precomputing XC quadrature grid using
 IXCGrd= 4 IRadAn=           0 IRanWt=          -1 IRanGd=           0 AccXCQ= 0.00D+00.
 Generated NRdTot=       0 NPtTot=           0 NUsed=           0 NTot=          32
 NSgBfM=   251   251   251   251   251 MxSgAt=    12 MxSgA2=    12.
 Leave Link  302 at Tue Aug  5 11:20:51 2025, MaxMem=   268435456 cpu:         0.7
 (Enter /home/lmod/software/Binaries/g09/D01/l303.exe)
 DipDrv:  MaxL=1.
 Leave Link  303 at Tue Aug  5 11:20:51 2025, MaxMem=   268435456 cpu:         0.0
 (Enter /home/lmod/software/Binaries/g09/D01/l401.exe)
 ExpMin= 9.52D-02 ExpMax= 1.36D+04 ExpMxC= 4.63D+02 IAcc=2 IRadAn=         4 AccDes= 0.00D+00
 Harris functional with IExCor=  402 and IRadAn=       4 diagonalized for initial guess.
 HarFok:  IExCor=  402 AccDes= 0.00D+00 IRadAn=         4 IDoV= 1 UseB2=F ITyADJ=14
 ICtDFT=  3500011 ScaDFX=  1.000000  1.000000  1.000000  1.000000
 FoFCou: FMM=F IPFlag=           0 FMFlag=      100000 FMFlg1=           0
         NFxFlg=           0 DoJE=T BraDBF=F KetDBF=T FulRan=T
         wScrn=  0.000000 ICntrl=     500 IOpCl=  0 I1Cent=   200000004 NGrid=           0
         NMat0=    1 NMatS0=      1 NMatT0=    0 NMatD0=    1 NMtDS0=    0 NMtDT0=    0
 Petite list used in FoFCou.
 Harris En= -232.384965855292    
 JPrj=0 DoOrth=F DoCkMO=F.
 Initial guess orbital symmetries:
       Occupied  (A1G) (E1U) (E1U) (E2G) (E2G) (B1U) (A1G) (E1U)
                 (E1U) (E2G) (E2G) (A1G) (B2U) (B1U) (E1U) (E1U)
                 (A2U) (E2G) (E2G) (E1G) (E1G)
       Virtual   (E2U) (E2U) (A1G) (B2G) (E1U) (E1U) (E2G) (E2G)
                 (B1U) (A1G) (E2G) (E2G) (A2U) (E1U) (E1U) (B2U)
                 (E1U) (E1U) (E1G) (E1G) (A1G) (E2G) (E2G) (E2U)
                 (E2U) (B1U) (E1U) (E1U) (B2G) (A2U) (E2G) (E2G)
                 (A2G) (A1G) (E2G) (E2G) (E1U) (E1U) (B1U) (B1U)
                 (A2G) (B1G) (E1U) (E1U) (E1G) (E1G) (A1G) (E2G)
                 (E2G) (E2U) (E2U) (B2U) (A1G) (B1U) (E2G) (E2G)
                 (E1U) (E1U) (E2U) (E2U) (E1U) (E1U) (B2G) (E2G)
                 (E2G) (E1G) (E1G) (E1U) (E1U) (A1G) (A2U) (A2G)
                 (B1U) (E1G) (E1G) (E2G) (E2G) (E1U) (E1U) (A1U)
                 (A1G) (B1U) (E2U) (E2U) (E1U) (E1U) (A2U) (E2G)
                 (E2G) (B2U) (B2G) (E1G) (E1G) (E2U) (E2U) (E2G)
                 (E2G) (B2U) (B1U) (E2G) (E2G) (A1G) (E1U) (E1U)
                 (B1G) (E1U) (E1U) (B2G) (B2U) (A1G) (E2G) (E2G)
                 (A2U) (E1U) (E1U) (E2U) (E2U) (E2G) (E2G) (A2G)
                 (E1G) (E1G) (B1U) (A2U) (E2G) (E2G) (A1G) (E1G)
                 (E1G) (E1U) (E1U) (B1U) (A2U) (E2U) (E2U) (E1U)
                 (E1U) (E2G) (E2G) (E1G) (E1G) (A1G) (E2G) (E2G)
                 (B1G) (E1U) (E1U) (B2G) (A1U) (E2U) (E2U) (A2G)
                 (B2U) (E1U) (E1U) (B1U) (E1G) (E1G) (A2G) (E2G)
                 (E2G) (B1U) (E2U) (E2U) (B2U) (A1G) (E1U) (E1U)
                 (E2G) (E2G) (B2G) (B1U) (A1G) (E1G) (E1G) (E2U)
                 (E2U) (E1U) (E1U) (E2G) (E2G) (E1U) (E1U) (A1U)
                 (B2G) (E2G) (E2G) (E2G) (E2G) (E1U) (E1U) (A2G)
                 (B1U) (B1U) (A2G) (A1G) (E1U) (E1U) (E2G) (E2G)
                 (B1U)
 The electronic state of the initial guess is 1-A1G.
 Leave Link  401 at Tue Aug  5 11:20:52 2025, MaxMem=   268435456 cpu:         0.8
 (Enter /home/lmod/software/Binaries/g09/D01/l502.exe)
 Closed shell SCF:
 Using DIIS extrapolation, IDIIS=  1040.
 Integral symmetry usage will be decided dynamically.
 IVT=      215186 IEndB=      215186 NGot=   268435456 MDV=   268300667
 LenX=   268300667 LenY=   268236722
 Requested convergence on RMS density matrix=1.00D-08 within 128 cycles.
 Requested convergence on MAX density matrix=1.00D-06.
 Requested convergence on             energy=1.00D-06.
 No special actions if energy rises.
 Fock matrices will be formed incrementally for  20 cycles.
 Integral accuracy reduced to 1.0D-05 until final iterations.

 Cycle   1  Pass 0  IDiag  1:
 FoFJK:  IHMeth= 1 ICntrl=       0 DoSepK=F KAlg= 0 I1Cent=   0 FoldK=F
 IRaf= 980000000 NMat=   1 IRICut=       1 DoRegI=T DoRafI=F ISym2E= 1.
 FoFCou: FMM=F IPFlag=           0 FMFlag=      100000 FMFlg1=           0
         NFxFlg=           0 DoJE=F BraDBF=F KetDBF=F FulRan=T
         wScrn=  0.000000 ICntrl=       0 IOpCl=  0 I1Cent=           0 NGrid=           0
         NMat0=    1 NMatS0=      1 NMatT0=    0 NMatD0=    1 NMtDS0=    0 NMtDT0=    0
 Petite list used in FoFCou.
 E= -232.156466400760    
 DIIS: error= 2.98D-02 at cycle   1 NSaved=   1.
 NSaved= 1 IEnMin= 1 EnMin= -232.156466400760     IErMin= 1 ErrMin= 2.98D-02
 ErrMax= 2.98D-02  0.00D+00 EMaxC= 1.00D-01 BMatC= 1.74D-01 BMatP= 1.74D-01
 IDIUse=3 WtCom= 7.02D-01 WtEn= 2.98D-01
 Coeff-Com:  0.100D+01
 Coeff-En:   0.100D+01
 Coeff:      0.100D+01
 Gap=     0.221 Goal=   None    Shift=    0.000
 GapD=    0.221 DampG=1.000 DampE=0.500 DampFc=0.5000 IDamp=-1.
 Damping current iteration by 5.00D-01
 RMSDP=3.53D-03 MaxDP=5.67D-02              OVMax= 1.81D-01

 Cycle   2  Pass 0  IDiag  1:
 RMSU=  1.68D-03    CP:  9.47D-01
 E= -232.232827249811     Delta-E=       -0.076360849051 Rises=F Damp=T
 DIIS: error= 8.21D-03 at cycle   2 NSaved=   2.
 NSaved= 2 IEnMin= 2 EnMin= -232.232827249811     IErMin= 2 ErrMin= 8.21D-03
 ErrMax= 8.21D-03  0.00D+00 EMaxC= 1.00D-01 BMatC= 1.00D-02 BMatP= 1.74D-01
 IDIUse=3 WtCom= 9.18D-01 WtEn= 8.21D-02
 Coeff-Com:  0.518D-01 0.948D+00
 Coeff-En:   0.139D+00 0.861D+00
 Coeff:      0.589D-01 0.941D+00
 Gap=     0.254 Goal=   None    Shift=    0.000
 RMSDP=9.15D-04 MaxDP=1.44D-02 DE=-7.64D-02 OVMax= 1.07D-01

 Cycle   3  Pass 0  IDiag  1:
 RMSU=  9.03D-04    CP:  9.37D-01  9.34D-01
 E= -232.334295290761     Delta-E=       -0.101468040951 Rises=F Damp=F
 DIIS: error= 6.59D-03 at cycle   3 NSaved=   3.
 NSaved= 3 IEnMin= 3 EnMin= -232.334295290761     IErMin= 3 ErrMin= 6.59D-03
 ErrMax= 6.59D-03  0.00D+00 EMaxC= 1.00D-01 BMatC= 3.18D-03 BMatP= 1.00D-02
 IDIUse=3 WtCom= 9.34D-01 WtEn= 6.59D-02
 Coeff-Com: -0.434D-01 0.329D+00 0.715D+00
 Coeff-En:   0.000D+00 0.000D+00 0.100D+01
 Coeff:     -0.405D-01 0.307D+00 0.734D+00
 Gap=     0.244 Goal=   None    Shift=    0.000
 RMSDP=1.83D-04 MaxDP=3.31D-03 DE=-1.01D-01 OVMax= 1.26D-02

 Cycle   4  Pass 0  IDiag  1:
 RMSU=  1.38D-04    CP:  9.35D-01  9.74D-01  8.90D-01
 E= -232.337335126486     Delta-E=       -0.003039835724 Rises=F Damp=F
 DIIS: error= 7.14D-04 at cycle   4 NSaved=   4.
 NSaved= 4 IEnMin= 4 EnMin= -232.337335126486     IErMin= 4 ErrMin= 7.14D-04
 ErrMax= 7.14D-04  0.00D+00 EMaxC= 1.00D-01 BMatC= 7.12D-05 BMatP= 3.18D-03
 IDIUse=3 WtCom= 9.93D-01 WtEn= 7.14D-03
 Coeff-Com: -0.132D-01 0.285D-01 0.172D+00 0.812D+00
 Coeff-En:   0.000D+00 0.000D+00 0.000D+00 0.100D+01
 Coeff:     -0.131D-01 0.283D-01 0.171D+00 0.814D+00
 Gap=     0.245 Goal=   None    Shift=    0.000
 RMSDP=4.04D-05 MaxDP=5.67D-04 DE=-3.04D-03 OVMax= 1.46D-03

 Cycle   5  Pass 0  IDiag  1:
 RMSU=  1.77D-05    CP:  9.35D-01  9.84D-01  9.18D-01  8.64D-01
 E= -232.337398912760     Delta-E=       -0.000063786274 Rises=F Damp=F
 DIIS: error= 3.50D-05 at cycle   5 NSaved=   5.
 NSaved= 5 IEnMin= 5 EnMin= -232.337398912760     IErMin= 5 ErrMin= 3.50D-05
 ErrMax= 3.50D-05  0.00D+00 EMaxC= 1.00D-01 BMatC= 1.32D-07 BMatP= 7.12D-05
 IDIUse=1 WtCom= 1.00D+00 WtEn= 0.00D+00
 Coeff-Com: -0.421D-03-0.106D-02 0.652D-02 0.642D-01 0.931D+00
 Coeff:     -0.421D-03-0.106D-02 0.652D-02 0.642D-01 0.931D+00
 Gap=     0.245 Goal=   None    Shift=    0.000
 RMSDP=6.85D-06 MaxDP=8.54D-05 DE=-6.38D-05 OVMax= 8.61D-05

 Initial convergence to 1.0D-05 achieved.  Increase integral accuracy.
 Cycle   6  Pass 1  IDiag  1:
 E= -232.337366943305     Delta-E=        0.000031969454 Rises=F Damp=F
 DIIS: error= 5.30D-05 at cycle   1 NSaved=   1.
 NSaved= 1 IEnMin= 1 EnMin= -232.337366943305     IErMin= 1 ErrMin= 5.30D-05
 ErrMax= 5.30D-05  0.00D+00 EMaxC= 1.00D-01 BMatC= 3.45D-07 BMatP= 3.45D-07
 IDIUse=1 WtCom= 1.00D+00 WtEn= 0.00D+00
 Coeff-Com:  0.100D+01
 Coeff:      0.100D+01
 Gap=     0.245 Goal=   None    Shift=    0.000
 RMSDP=6.85D-06 MaxDP=8.54D-05 DE= 3.20D-05 OVMax= 3.64D-04

 Cycle   7  Pass 1  IDiag  1:
 RMSU=  1.84D-05    CP:  1.00D+00
 E= -232.337367325839     Delta-E=       -0.000000382533 Rises=F Damp=F
 DIIS: error= 3.17D-06 at cycle   2 NSaved=   2.
 NSaved= 2 IEnMin= 2 EnMin= -232.337367325839     IErMin= 2 ErrMin= 3.17D-06
 ErrMax= 3.17D-06  0.00D+00 EMaxC= 1.00D-01 BMatC= 4.85D-10 BMatP= 3.45D-07
 IDIUse=1 WtCom= 1.00D+00 WtEn= 0.00D+00
 Coeff-Com: -0.200D-01 0.102D+01
 Coeff:     -0.200D-01 0.102D+01
 Gap=     0.245 Goal=   None    Shift=    0.000
 RMSDP=5.43D-07 MaxDP=1.05D-05 DE=-3.83D-07 OVMax= 2.40D-05

 Cycle   8  Pass 1  IDiag  1:
 RMSU=  4.81D-07    CP:  1.00D+00  1.01D+00
 E= -232.337367326989     Delta-E=       -0.000000001150 Rises=F Damp=F
 DIIS: error= 1.05D-06 at cycle   3 NSaved=   3.
 NSaved= 3 IEnMin= 3 EnMin= -232.337367326989     IErMin= 3 ErrMin= 1.05D-06
 ErrMax= 1.05D-06  0.00D+00 EMaxC= 1.00D-01 BMatC= 7.83D-11 BMatP= 4.85D-10
 IDIUse=1 WtCom= 1.00D+00 WtEn= 0.00D+00
 Coeff-Com: -0.565D-02 0.255D+00 0.751D+00
 Coeff:     -0.565D-02 0.255D+00 0.751D+00
 Gap=     0.245 Goal=   None    Shift=    0.000
 RMSDP=4.18D-08 MaxDP=6.13D-07 DE=-1.15D-09 OVMax= 3.00D-06

 Cycle   9  Pass 1  IDiag  1:
 RMSU=  4.16D-08    CP:  1.00D+00  1.01D+00  1.00D+00
 E= -232.337367327037     Delta-E=       -0.000000000047 Rises=F Damp=F
 DIIS: error= 5.94D-07 at cycle   4 NSaved=   4.
 NSaved= 4 IEnMin= 4 EnMin= -232.337367327037     IErMin= 4 ErrMin= 5.94D-07
 ErrMax= 5.94D-07  0.00D+00 EMaxC= 1.00D-01 BMatC= 3.13D-11 BMatP= 7.83D-11
 IDIUse=1 WtCom= 1.00D+00 WtEn= 0.00D+00
 Coeff-Com: -0.390D-03 0.999D-03 0.385D+00 0.615D+00
 Coeff:     -0.390D-03 0.999D-03 0.385D+00 0.615D+00
 Gap=     0.245 Goal=   None    Shift=    0.000
 RMSDP=2.20D-08 MaxDP=3.27D-07 DE=-4.73D-11 OVMax= 1.20D-06

 Cycle  10  Pass 1  IDiag  1:
 RMSU=  9.24D-09    CP:  1.00D+00  1.01D+00  1.03D+00  6.66D-01
 E= -232.337367327068     Delta-E=       -0.000000000032 Rises=F Damp=F
 DIIS: error= 4.90D-08 at cycle   5 NSaved=   5.
 NSaved= 5 IEnMin= 5 EnMin= -232.337367327068     IErMin= 5 ErrMin= 4.90D-08
 ErrMax= 4.90D-08  0.00D+00 EMaxC= 1.00D-01 BMatC= 3.66D-13 BMatP= 3.13D-11
 IDIUse=1 WtCom= 1.00D+00 WtEn= 0.00D+00
 Coeff-Com:  0.278D-04-0.752D-02 0.111D+00 0.210D+00 0.687D+00
 Coeff:      0.278D-04-0.752D-02 0.111D+00 0.210D+00 0.687D+00
 Gap=     0.245 Goal=   None    Shift=    0.000
 RMSDP=2.67D-09 MaxDP=4.83D-08 DE=-3.18D-11 OVMax= 1.31D-07

 SCF Done:  E(RB3LYP) =  -232.337367327     A.U. after   10 cycles
            NFock= 10  Conv=0.27D-08     -V/T= 2.0053
 KE= 2.311024287340D+02 PE=-9.464017545038D+02 EE= 2.789958342432D+02
 Leave Link  502 at Tue Aug  5 11:21:01 2025, MaxMem=   268435456 cpu:        15.1
 (Enter /home/lmod/software/Binaries/g09/D01/l601.exe)
 Copying SCF densities to generalized density rwf, IOpCl= 0 IROHF=0.

 **********************************************************************

            Population analysis using the SCF density.

 **********************************************************************

 Orbital symmetries:
       Occupied  (A1G) (E1U) (E1U) (E2G) (E2G) (B1U) (A1G) (E1U)
                 (E1U) (E2G) (E2G) (A1G) (B1U) (B2U) (E1U) (E1U)
                 (A2U) (E2G) (E2G) (E1G) (E1G)
       Virtual   (E2U) (E2U) (A1G) (E1U) (E1U) (E2G) (E2G) (B1U)
                 (B2G) (A1G) (A2U) (B2U) (E2G) (E2G) (E1U) (E1U)
                 (E1G) (E1G) (E1U) (E1U) (A1G) (E2U) (E2U) (E2G)
                 (E2G) (B1U) (B2G) (E1U) (E1U) (E2G) (E2G) (A1G)
                 (A2U) (A2G) (E2G) (E2G) (B1U) (E1U) (E1U) (E1U)
                 (E1U) (B1G) (A2G) (B1U) (E1G) (E1G) (E2G) (E2G)
                 (A1G) (E2U) (E2U) (B2U) (A1G) (B1U) (E2G) (E2G)
                 (E1U) (E1U) (E2U) (E2U) (B2G) (E1U) (E1U) (E2G)
                 (E2G) (E1G) (E1G) (E1U) (E1U) (A1G) (A2G) (B1U)
                 (A2U) (E2G) (E2G) (E1G) (E1G) (E1U) (E1U) (A1U)
                 (B1U) (A1G) (E2U) (E2U) (A2U) (E2G) (E2G) (E1U)
                 (E1U) (B2U) (B2G) (E1G) (E1G) (E2U) (E2U) (B1U)
                 (E2G) (E2G) (B2U) (E2G) (E2G) (A1G) (E1U) (E1U)
                 (B1G) (B2G) (E1U) (E1U) (A1G) (E2G) (E2G) (B2U)
                 (A2U) (E1U) (E1U) (E2U) (E2U) (A2G) (E2G) (E2G)
                 (B1U) (E1G) (E1G) (A2U) (E2G) (E2G) (A1G) (E1G)
                 (E1G) (E1U) (E1U) (B1U) (A2U) (E2U) (E2U) (E1U)
                 (E1U) (E1G) (E1G) (E2G) (E2G) (A1G) (E2G) (E2G)
                 (B1G) (E1U) (E1U) (B2G) (A1U) (E2U) (E2U) (A2G)
                 (E1U) (E1U) (B2U) (B1U) (E1G) (E1G) (A2G) (E2G)
                 (E2G) (B1U) (E2U) (E2U) (B2U) (A1G) (E1U) (E1U)
                 (B2G) (E2G) (E2G) (B1U) (A1G) (E1G) (E1G) (E2U)
                 (E2U) (E2G) (E2G) (E1U) (E1U) (A1U) (E1U) (E1U)
                 (B2G) (E2G) (E2G) (E2G) (E2G) (E1U) (E1U) (B1U)
                 (A2G) (B1U) (A2G) (A1G) (E1U) (E1U) (E2G) (E2G)
                 (B1U)
 The electronic state is 1-A1G.
 Alpha  occ. eigenvalues --  -10.17703 -10.17679 -10.17679 -10.17621 -10.17621
 Alpha  occ. eigenvalues --  -10.17593  -0.85824  -0.74948  -0.74948  -0.60632
 Alpha  occ. eigenvalues --   -0.60632  -0.52855  -0.46435  -0.45156  -0.42597
 Alpha  occ. eigenvalues --   -0.42597  -0.37318  -0.34868  -0.34868  -0.25932
 Alpha  occ. eigenvalues --   -0.25932
 Alpha virt. eigenvalues --   -0.01444  -0.01444   0.04467   0.07651   0.07651
 Alpha virt. eigenvalues --    0.10351   0.10351   0.12626   0.13996   0.14889
 Alpha virt. eigenvalues --    0.20544   0.20866   0.21446   0.21446   0.23189
 Alpha virt. eigenvalues --    0.23189   0.24685   0.24685   0.26799   0.26799
 Alpha virt. eigenvalues --    0.32593   0.32610   0.32610   0.35571   0.35571
 Alpha virt. eigenvalues --    0.38114   0.40279   0.41161   0.41161   0.43547
 Alpha virt. eigenvalues --    0.43547   0.43743   0.46150   0.46206   0.48829
 Alpha virt. eigenvalues --    0.48829   0.49021   0.50558   0.50558   0.64255
 Alpha virt. eigenvalues --    0.64255   0.65084   0.67820   0.68473   0.74502
 Alpha virt. eigenvalues --    0.74502   0.75351   0.75351   0.79868   0.84316
 Alpha virt. eigenvalues --    0.84316   0.85012   0.88700   0.88937   0.99900
 Alpha virt. eigenvalues --    0.99900   1.00854   1.00854   1.04933   1.04933
 Alpha virt. eigenvalues --    1.16516   1.17310   1.17310   1.20179   1.20179
 Alpha virt. eigenvalues --    1.22020   1.22020   1.24799   1.24799   1.28168
 Alpha virt. eigenvalues --    1.37386   1.37417   1.38382   1.44880   1.44880
 Alpha virt. eigenvalues --    1.47699   1.47699   1.48041   1.48041   1.59459
 Alpha virt. eigenvalues --    1.60667   1.64839   1.66221   1.66221   1.67706
 Alpha virt. eigenvalues --    1.68804   1.68804   1.70063   1.70063   1.76139
 Alpha virt. eigenvalues --    1.83718   1.90221   1.90221   2.03224   2.03224
 Alpha virt. eigenvalues --    2.06130   2.07254   2.07254   2.08197   2.15447
 Alpha virt. eigenvalues --    2.15447   2.21675   2.23088   2.23088   2.31564
 Alpha virt. eigenvalues --    2.45953   2.48084   2.48084   2.54797   2.55516
 Alpha virt. eigenvalues --    2.55516   2.55989   2.58158   2.65247   2.65247
 Alpha virt. eigenvalues --    2.66479   2.66479   2.66680   2.67410   2.67410
 Alpha virt. eigenvalues --    2.73546   2.74324   2.74324   2.80008   2.80143
 Alpha virt. eigenvalues --    2.80143   2.83751   2.84270   2.84270   2.84518
 Alpha virt. eigenvalues --    2.84518   2.89444   3.00820   3.09178   3.09178
 Alpha virt. eigenvalues --    3.09205   3.09205   3.13276   3.13276   3.13819
 Alpha virt. eigenvalues --    3.13819   3.18591   3.21271   3.21271   3.24155
 Alpha virt. eigenvalues --    3.25402   3.25402   3.30251   3.34663   3.37102
 Alpha virt. eigenvalues --    3.37102   3.37644   3.43884   3.43884   3.47305
 Alpha virt. eigenvalues --    3.49696   3.52154   3.52154   3.60081   3.63337
 Alpha virt. eigenvalues --    3.63337   3.74887   3.75546   3.75546   3.79169
 Alpha virt. eigenvalues --    3.86243   3.99406   3.99406   4.06398   4.06754
 Alpha virt. eigenvalues --    4.06754   4.11079   4.19720   4.19774   4.19774
 Alpha virt. eigenvalues --    4.22047   4.22047   4.28434   4.28434   4.29212
 Alpha virt. eigenvalues --    4.29212   4.62430   4.63704   4.63704   4.65422
 Alpha virt. eigenvalues --    4.82626   4.82626   4.88434   4.88434   5.20293
 Alpha virt. eigenvalues --    5.20293   5.27288   5.28582   5.41603   5.61777
 Alpha virt. eigenvalues --   21.85401  22.52877  22.52877  22.62752  22.62752
 Alpha virt. eigenvalues --   23.05358
          Condensed to atoms (all electrons):
               1          2          3          4          5          6
     1  C    4.863093   0.508415   0.508415  -0.046500  -0.046500  -0.034747
     2  C    0.508415   4.863093  -0.034747   0.419109   0.008353   0.508415
     3  C    0.508415  -0.034747   4.863093   0.008353   0.419109  -0.042792
     4  H   -0.046500   0.419109   0.008353   0.564038  -0.000290  -0.046500
     5  H   -0.046500   0.008353   0.419109  -0.000290   0.564038  -0.001561
     6  C   -0.034747   0.508415  -0.042792  -0.046500  -0.001561   4.863093
     7  C   -0.034747  -0.042792   0.508415  -0.001561  -0.046500  -0.034747
     8  H    0.008353  -0.046500  -0.001561  -0.006845   0.000088   0.419109
     9  H    0.008353  -0.001561  -0.046500   0.000088  -0.006845   0.008353
    10  C   -0.042792  -0.034747  -0.034747   0.008353   0.008353   0.508415
    11  H   -0.001561   0.008353   0.008353  -0.000290  -0.000290  -0.046500
    12  H    0.419109  -0.046500  -0.046500  -0.006845  -0.006845   0.008353
               7          8          9         10         11         12
     1  C   -0.034747   0.008353   0.008353  -0.042792  -0.001561   0.419109
     2  C   -0.042792  -0.046500  -0.001561  -0.034747   0.008353  -0.046500
     3  C    0.508415  -0.001561  -0.046500  -0.034747   0.008353  -0.046500
     4  H   -0.001561  -0.006845   0.000088   0.008353  -0.000290  -0.006845
     5  H   -0.046500   0.000088  -0.006845   0.008353  -0.000290  -0.006845
     6  C   -0.034747   0.419109   0.008353   0.508415  -0.046500   0.008353
     7  C    4.863093   0.008353   0.419109   0.508415  -0.046500   0.008353
     8  H    0.008353   0.564038  -0.000290  -0.046500  -0.006845  -0.000290
     9  H    0.419109  -0.000290   0.564038  -0.046500  -0.006845  -0.000290
    10  C    0.508415  -0.046500  -0.046500   4.863093   0.419109  -0.001561
    11  H   -0.046500  -0.006845  -0.006845   0.419109   0.564038   0.000088
    12  H    0.008353  -0.000290  -0.000290  -0.001561   0.000088   0.564038
 Mulliken charges:
               1
     1  C   -0.108891
     2  C   -0.108891
     3  C   -0.108891
     4  H    0.108891
     5  H    0.108891
     6  C   -0.108891
     7  C   -0.108891
     8  H    0.108891
     9  H    0.108891
    10  C   -0.108891
    11  H    0.108891
    12  H    0.108891
 Sum of Mulliken charges =  -0.00000
 Mulliken charges with hydrogens summed into heavy atoms:
               1
     1  C   -0.000000
     2  C   -0.000000
     3  C   -0.000000
     6  C   -0.000000
     7  C   -0.000000
    10  C   -0.000000
 Electronic spatial extent (au):  <R**2>=            457.4150
 Charge=              0.0000 electrons
 Dipole moment (field-independent basis, Debye):
    X=             -0.0000    Y=             -0.0000    Z=              0.0000  Tot=              0.0000
 Quadrupole moment (field-independent basis, Debye-Ang):
   XX=            -32.1309   YY=            -32.1309   ZZ=            -39.8592
   XY=             -0.0000   XZ=              0.0000   YZ=              0.0000
 Traceless Quadrupole moment (field-independent basis, Debye-Ang):
   XX=              2.5761   YY=              2.5761   ZZ=             -5.1522
   XY=             -0.0000   XZ=              0.0000   YZ=              0.0000
 Octapole moment (field-independent basis, Debye-Ang**2):
  XXX=             -0.0000  YYY=             -0.0000  ZZZ=             -0.0000  XYY=             -0.0000
  XXY=             -0.0000  XXZ=              0.0000  XZZ=              0.0000  YZZ=              0.0000
  YYZ=              0.0000  XYZ=              0.0000
 Hexadecapole moment (field-independent basis, Debye-Ang**3):
 XXXX=           -274.8411 YYYY=           -274.8411 ZZZZ=            -48.1068 XXXY=             -0.0000
 XXXZ=              0.0000 YYYX=              0.0000 YYYZ=             -0.0000 ZZZX=             -0.0000
 ZZZY=             -0.0000 XXYY=            -91.6137 XXZZ=            -63.9255 YYZZ=            -63.9255
 XXYZ=              0.0000 YYXZ=              0.0000 ZZXY=              0.0000
 N-N= 2.039661241995D+02 E-N=-9.464017452100D+02  KE= 2.311024287340D+02
 Symmetry AG   KE= 7.445317536429D+01
 Symmetry B1G  KE= 3.768279551847D+01
 Symmetry B2G  KE= 2.232778045155D+00
 Symmetry B3G  KE= 2.232778045155D+00
 Symmetry AU   KE= 5.978405141808D-17
 Symmetry B1U  KE= 1.875423771073D+00
 Symmetry B2U  KE= 7.206993769579D+01
 Symmetry B3U  KE= 4.055554029403D+01
 No NMR shielding tensors so no spin-rotation constants.
 Leave Link  601 at Tue Aug  5 11:21:02 2025, MaxMem=   268435456 cpu:         0.5
 (Enter /home/lmod/software/Binaries/g09/D01/l701.exe)
 Compute integral first derivatives.
 ... and contract with generalized density number  0.
  24 Symmetry operations used in ECPInt.
 ECPInt:  NShTT=    4095 NPrTT=   12396 LenC2=    4075 LenP2D=   10419.
 LDataN:  DoStor=T MaxTD1= 7 Len=  274
 Leave Link  701 at Tue Aug  5 11:21:02 2025, MaxMem=   268435456 cpu:         0.6
 (Enter /home/lmod/software/Binaries/g09/D01/l702.exe)
 L702 exits ... SP integral derivatives will be done elsewhere.
 Leave Link  702 at Tue Aug  5 11:21:02 2025, MaxMem=   268435456 cpu:         0.0
 (Enter /home/lmod/software/Binaries/g09/D01/l703.exe)
 Compute integral first derivatives, UseDBF=F ICtDFT=           0.
 Integral derivatives from FoFJK, PRISM(SPDF).
 Calling FoFJK, ICntrl=      2127 FMM=F ISym2X=1 I1Cent= 0 IOpClX= 0 NMat=1 NMatS=1 NMatT=0.
 FoFJK:  IHMeth= 1 ICntrl=    2127 DoSepK=F KAlg= 0 I1Cent=   0 FoldK=F
 IRaf=         0 NMat=   1 IRICut=       1 DoRegI=T DoRafI=F ISym2E= 1.
 FoFCou: FMM=F IPFlag=           0 FMFlag=      100000 FMFlg1=         800
         NFxFlg=           0 DoJE=F BraDBF=F KetDBF=F FulRan=T
         wScrn=  0.000000 ICntrl=    2127 IOpCl=  0 I1Cent=           0 NGrid=           0
         NMat0=    1 NMatS0=      1 NMatT0=    0 NMatD0=    1 NMtDS0=    0 NMtDT0=    0
 Petite list used in FoFCou.
 Leave Link  703 at Tue Aug  5 11:21:05 2025, MaxMem=   268435456 cpu:         5.4
 (Enter /home/lmod/software/Binaries/g09/D01/l716.exe)
 Dipole        =-3.70815100D-15-1.15463195D-14 1.14086216D-17
 ***** Axes restored to original set *****
 -------------------------------------------------------------------
 Center     Atomic                   Forces (Hartrees/Bohr)
 Number     Number              X              Y              Z
 -------------------------------------------------------------------
      1        6           0.000000000   -0.000137312    0.000000000
      2        6           0.000118916   -0.000068656    0.000000000
      3        6          -0.000118916   -0.000068656    0.000000000
      4        1           0.000059777   -0.000034512    0.000000000
      5        1          -0.000059777   -0.000034512   -0.000000000
      6        6           0.000118916    0.000068656   -0.000000000
      7        6          -0.000118916    0.000068656    0.000000000
      8        1           0.000059777    0.000034512    0.000000000
      9        1          -0.000059777    0.000034512    0.000000000
     10        6          -0.000000000    0.000137312    0.000000000
     11        1          -0.000000000    0.000069025    0.000000000
     12        1           0.000000000   -0.000069025    0.000000000
 -------------------------------------------------------------------
 Cartesian Forces:  Max     0.000137312 RMS     0.000062741
 Leave Link  716 at Tue Aug  5 11:21:06 2025, MaxMem=   268435456 cpu:         0.0
 (Enter /home/lmod/software/Binaries/g09/D01/l103.exe)

 GradGradGradGradGradGradGradGradGradGradGradGradGradGradGradGradGradGrad
 Berny optimization.
 FormGI is forming the generalized inverse of G from B-inverse, IUseBI=4.
 Internal  Forces:  Max     0.000206336 RMS     0.000072525
 Search for a local minimum.
 Step number   1 out of a maximum of   64
 All quantities printed in internal units (Hartrees-Bohrs-Radians)
 RMS Force = .72525D-04 SwitMx=.10000D-02 MixMth= 2
 Mixed Optimization -- En-DIIS/RFO-DIIS
 Second derivative matrix not updated -- first step.
 ITU=  0
     Eigenvalues ---    0.02205   0.02205   0.02205   0.02205   0.02205
     Eigenvalues ---    0.02205   0.02205   0.02205   0.02205   0.16000
     Eigenvalues ---    0.16000   0.16000   0.16000   0.16000   0.16000
     Eigenvalues ---    0.22000   0.22000   0.22000   0.35627   0.35627
     Eigenvalues ---    0.35627   0.35627   0.35627   0.35627   0.42628
     Eigenvalues ---    0.42628   0.47105   0.47105   0.47105   0.47105
 RFO step:  Lambda=-6.22535330D-07 EMin= 2.20472633D-02
 Linear search not attempted -- first point.
 Iteration  1 RMS(Cart)=  0.00025626 RMS(Int)=  0.00000000
 Iteration  2 RMS(Cart)=  0.00000000 RMS(Int)=  0.00000000
 ITry= 1 IFail=0 DXMaxC= 6.32D-04 DCOld= 1.00D+10 DXMaxT= 3.00D-01 DXLimC= 3.00D+00 Rises=F
 ClnCor:  largest displacement from symmetrization is 6.66D-13 for atom    11.
 Variable       Old X    -DE/DX   Delta X   Delta X   Delta X     New X
                                 (Linear)    (Quad)   (Total)
    R1        2.62905  -0.00021   0.00000  -0.00044  -0.00044   2.62861
    R2        2.62905  -0.00021   0.00000  -0.00044  -0.00044   2.62861
    R3        2.04669  -0.00007   0.00000  -0.00019  -0.00019   2.04649
    R4        2.04669  -0.00007   0.00000  -0.00019  -0.00019   2.04649
    R5        2.62905  -0.00021   0.00000  -0.00044  -0.00044   2.62861
    R6        2.04669  -0.00007   0.00000  -0.00019  -0.00019   2.04649
    R7        2.62905  -0.00021   0.00000  -0.00044  -0.00044   2.62861
    R8        2.04669  -0.00007   0.00000  -0.00019  -0.00019   2.04649
    R9        2.62905  -0.00021   0.00000  -0.00044  -0.00044   2.62861
   R10        2.04669  -0.00007   0.00000  -0.00019  -0.00019   2.04649
   R11        2.62905  -0.00021   0.00000  -0.00044  -0.00044   2.62861
   R12        2.04669  -0.00007   0.00000  -0.00019  -0.00019   2.04649
    A1        2.09440   0.00000   0.00000   0.00000   0.00000   2.09440
    A2        2.09440  -0.00000   0.00000  -0.00000   0.00000   2.09440
    A3        2.09440   0.00000   0.00000   0.00000  -0.00000   2.09440
    A4        2.09440   0.00000   0.00000   0.00000  -0.00000   2.09440
    A5        2.09440  -0.00000   0.00000  -0.00000   0.00000   2.09440
    A6        2.09440   0.00000   0.00000   0.00000   0.00000   2.09440
    A7        2.09440   0.00000   0.00000   0.00000  -0.00000   2.09440
    A8        2.09440  -0.00000   0.00000  -0.00000  -0.00000   2.09440
    A9        2.09440  -0.00000   0.00000  -0.00000   0.00000   2.09440
   A10        2.09440  -0.00000   0.00000  -0.00000   0.00000   2.09440
   A11        2.09440   0.00000   0.00000   0.00000   0.00000   2.09440
   A12        2.09440   0.00000   0.00000   0.00000  -0.00000   2.09440
   A13        2.09440   0.00000   0.00000   0.00000   0.00000   2.09440
   A14        2.09440  -0.00000   0.00000  -0.00000   0.00000   2.09440
   A15        2.09440   0.00000   0.00000  -0.00000  -0.00000   2.09440
   A16        2.09440   0.00000   0.00000   0.00000   0.00000   2.09440
   A17        2.09440  -0.00000   0.00000  -0.00000   0.00000   2.09440
   A18        2.09440  -0.00000   0.00000  -0.00000   0.00000   2.09440
    D1        3.14159   0.00000   0.00000   0.00000   0.00000   3.14159
    D2        0.00000   0.00000   0.00000   0.00000   0.00000   0.00000
    D3        0.00000  -0.00000   0.00000  -0.00000   0.00000   0.00000
    D4        3.14159  -0.00000   0.00000  -0.00000   0.00000   3.14159
    D5        3.14159  -0.00000   0.00000  -0.00000   0.00000   3.14159
    D6        0.00000  -0.00000   0.00000  -0.00000   0.00000   0.00000
    D7        0.00000  -0.00000   0.00000  -0.00000   0.00000   0.00000
    D8        3.14159  -0.00000   0.00000  -0.00000   0.00000   3.14159
    D9        3.14159  -0.00000   0.00000  -0.00000   0.00000   3.14159
   D10        0.00000   0.00000   0.00000   0.00000   0.00000   0.00000
   D11        0.00000  -0.00000   0.00000  -0.00000   0.00000   0.00000
   D12        3.14159   0.00000   0.00000   0.00000   0.00000   3.14159
   D13        3.14159   0.00000   0.00000   0.00000   0.00000   3.14159
   D14        0.00000   0.00000   0.00000   0.00000   0.00000   0.00000
   D15        0.00000   0.00000   0.00000   0.00000   0.00000   0.00000
   D16        3.14159   0.00000   0.00000   0.00000   0.00000   3.14159
   D17        0.00000  -0.00000   0.00000  -0.00000   0.00000   0.00000
   D18        3.14159   0.00000   0.00000   0.00000   0.00000   3.14159
   D19        3.14159   0.00000   0.00000   0.00000   0.00000   3.14159
   D20        0.00000   0.00000   0.00000   0.00000   0.00000   0.00000
   D21        0.00000  -0.00000   0.00000  -0.00000   0.00000   0.00000
   D22        3.14159  -0.00000   0.00000  -0.00000   0.00000   3.14159
   D23        3.14159   0.00000   0.00000   0.00000   0.00000   3.14159
   D24        0.00000   0.00000   0.00000   0.00000   0.00000   0.00000
         Item               Value     Threshold  Converged?
 Maximum Force            0.000206     0.000450     YES
 RMS     Force            0.000073     0.000300     YES
 Maximum Displacement     0.000632     0.001800     YES
 RMS     Displacement     0.000256     0.001200     YES
 Predicted change in Energy=-3.112677D-07
 Optimization completed.
    -- Stationary point found.
                           ----------------------------
                           !   Optimized Parameters   !
                           ! (Angstroms and Degrees)  !
 --------------------------                            --------------------------
 ! Name  Definition              Value          Derivative Info.                !
 --------------------------------------------------------------------------------
 ! R1    R(1,2)                  1.3912         -DE/DX =   -0.0002              !
 ! R2    R(1,3)                  1.3912         -DE/DX =   -0.0002              !
 ! R3    R(1,12)                 1.0831         -DE/DX =   -0.0001              !
 ! R4    R(2,4)                  1.0831         -DE/DX =   -0.0001              !
 ! R5    R(2,6)                  1.3912         -DE/DX =   -0.0002              !
 ! R6    R(3,5)                  1.0831         -DE/DX =   -0.0001              !
 ! R7    R(3,7)                  1.3912         -DE/DX =   -0.0002              !
 ! R8    R(6,8)                  1.0831         -DE/DX =   -0.0001              !
 ! R9    R(6,10)                 1.3912         -DE/DX =   -0.0002              !
 ! R10   R(7,9)                  1.0831         -DE/DX =   -0.0001              !
 ! R11   R(7,10)                 1.3912         -DE/DX =   -0.0002              !
 ! R12   R(10,11)                1.0831         -DE/DX =   -0.0001              !
 ! A1    A(2,1,3)              120.0            -DE/DX =    0.0                 !
 ! A2    A(2,1,12)             120.0            -DE/DX =    0.0                 !
 ! A3    A(3,1,12)             120.0            -DE/DX =    0.0                 !
 ! A4    A(1,2,4)              120.0            -DE/DX =    0.0                 !
 ! A5    A(1,2,6)              120.0            -DE/DX =    0.0                 !
 ! A6    A(4,2,6)              120.0            -DE/DX =    0.0                 !
 ! A7    A(1,3,5)              120.0            -DE/DX =    0.0                 !
 ! A8    A(1,3,7)              120.0            -DE/DX =    0.0                 !
 ! A9    A(5,3,7)              120.0            -DE/DX =    0.0                 !
 ! A10   A(2,6,8)              120.0            -DE/DX =    0.0                 !
 ! A11   A(2,6,10)             120.0            -DE/DX =    0.0                 !
 ! A12   A(8,6,10)             120.0            -DE/DX =    0.0                 !
 ! A13   A(3,7,9)              120.0            -DE/DX =    0.0                 !
 ! A14   A(3,7,10)             120.0            -DE/DX =    0.0                 !
 ! A15   A(9,7,10)             120.0            -DE/DX =    0.0                 !
 ! A16   A(6,10,7)             120.0            -DE/DX =    0.0                 !
 ! A17   A(6,10,11)            120.0            -DE/DX =    0.0                 !
 ! A18   A(7,10,11)            120.0            -DE/DX =    0.0                 !
 ! D1    D(3,1,2,4)            180.0            -DE/DX =    0.0                 !
 ! D2    D(3,1,2,6)              0.0            -DE/DX =    0.0                 !
 ! D3    D(12,1,2,4)             0.0            -DE/DX =    0.0                 !
 ! D4    D(12,1,2,6)           180.0            -DE/DX =    0.0                 !
 ! D5    D(2,1,3,5)            180.0            -DE/DX =    0.0                 !
 ! D6    D(2,1,3,7)              0.0            -DE/DX =    0.0                 !
 ! D7    D(12,1,3,5)             0.0            -DE/DX =    0.0                 !
 ! D8    D(12,1,3,7)           180.0            -DE/DX =    0.0                 !
 ! D9    D(1,2,6,8)            180.0            -DE/DX =    0.0                 !
 ! D10   D(1,2,6,10)             0.0            -DE/DX =    0.0                 !
 ! D11   D(4,2,6,8)              0.0            -DE/DX =    0.0                 !
 ! D12   D(4,2,6,10)           180.0            -DE/DX =    0.0                 !
 ! D13   D(1,3,7,9)            180.0            -DE/DX =    0.0                 !
 ! D14   D(1,3,7,10)             0.0            -DE/DX =    0.0                 !
 ! D15   D(5,3,7,9)              0.0            -DE/DX =    0.0                 !
 ! D16   D(5,3,7,10)           180.0            -DE/DX =    0.0                 !
 ! D17   D(2,6,10,7)             0.0            -DE/DX =    0.0                 !
 ! D18   D(2,6,10,11)          180.0            -DE/DX =    0.0                 !
 ! D19   D(8,6,10,7)           180.0            -DE/DX =    0.0                 !
 ! D20   D(8,6,10,11)            0.0            -DE/DX =    0.0                 !
 ! D21   D(3,7,10,6)             0.0            -DE/DX =    0.0                 !
 ! D22   D(3,7,10,11)          180.0            -DE/DX =    0.0                 !
 ! D23   D(9,7,10,6)           180.0            -DE/DX =    0.0                 !
 ! D24   D(9,7,10,11)            0.0            -DE/DX =    0.0                 !
 --------------------------------------------------------------------------------
 Lowest energy point so far.  Saving SCF results.
 GradGradGradGradGradGradGradGradGradGradGradGradGradGradGradGradGradGrad

 Largest change from initial coordinates is atom    5       0.000 Angstoms.
 Leave Link  103 at Tue Aug  5 11:21:06 2025, MaxMem=   268435456 cpu:         0.0
 (Enter /home/lmod/software/Binaries/g09/D01/l202.exe)
                          Input orientation:                          
 ---------------------------------------------------------------------
 Center     Atomic      Atomic             Coordinates (Angstroms)
 Number     Number       Type             X           Y           Z
 ---------------------------------------------------------------------
      1          6           0       -0.000000    1.391233   -0.000000
      2          6           0       -1.204843    0.695616   -0.000000
      3          6           0        1.204843    0.695617   -0.000000
      4          1           0       -2.142801    1.237147   -0.000000
      5          1           0        2.142801    1.237147    0.000000
      6          6           0       -1.204843   -0.695617   -0.000000
      7          6           0        1.204843   -0.695616   -0.000000
      8          1           0       -2.142801   -1.237147   -0.000000
      9          1           0        2.142801   -1.237147   -0.000000
     10          6           0        0.000000   -1.391233   -0.000000
     11          1           0        0.000000   -2.474294   -0.000000
     12          1           0       -0.000000    2.474294   -0.000000
 ---------------------------------------------------------------------
                    Distance matrix (angstroms):
                    1          2          3          4          5
     1  C    0.000000
     2  C    1.391233   0.000000
     3  C    1.391233   2.409686   0.000000
     4  H    2.148334   1.083061   3.391162   0.000000
     5  H    2.148334   3.391162   1.083061   4.285602   0.000000
     6  C    2.409686   1.391233   2.782466   2.148334   3.865527
     7  C    2.409686   2.782466   1.391233   3.865527   2.148334
     8  H    3.391162   2.148334   3.865527   2.474294   4.948587
     9  H    3.391162   3.865527   2.148334   4.948587   2.474294
    10  C    2.782466   2.409686   2.409686   3.391162   3.391162
    11  H    3.865527   3.391162   3.391162   4.285602   4.285602
    12  H    1.083061   2.148334   2.148334   2.474294   2.474294
                    6          7          8          9         10
     6  C    0.000000
     7  C    2.409686   0.000000
     8  H    1.083061   3.391162   0.000000
     9  H    3.391162   1.083061   4.285602   0.000000
    10  C    1.391233   1.391233   2.148334   2.148334   0.000000
    11  H    2.148334   2.148334   2.474294   2.474294   1.083061
    12  H    3.391162   3.391162   4.285602   4.285602   3.865527
                   11         12
    11  H    0.000000
    12  H    4.948587   0.000000
 Stoichiometry    C6H6
 Framework group  D6H[3C2'(HC.CH)]
 Deg. of freedom     2
 Full point group                 D6H     NOp  24
 RotChk:  IX=2 Diff= 2.34D-16
 Largest Abelian subgroup         D2H     NOp   8
 Largest concise Abelian subgroup D2      NOp   4
                         Standard orientation:                         
 ---------------------------------------------------------------------
 Center     Atomic      Atomic             Coordinates (Angstroms)
 Number     Number       Type             X           Y           Z
 ---------------------------------------------------------------------
      1          6           0       -0.000000    1.391233    0.000000
      2          6           0       -1.204843    0.695616   -0.000000
      3          6           0        1.204843    0.695616    0.000000
      4          1           0       -2.142801    1.237147    0.000000
      5          1           0        2.142801    1.237147    0.000000
      6          6           0       -1.204843   -0.695616    0.000000
      7          6           0        1.204843   -0.695616    0.000000
      8          1           0       -2.142801   -1.237147    0.000000
      9          1           0        2.142801   -1.237147    0.000000
     10          6           0        0.000000   -1.391233   -0.000000
     11          1           0        0.000000   -2.474294    0.000000
     12          1           0       -0.000000    2.474294    0.000000
 ---------------------------------------------------------------------
 Rotational constants (GHZ):      5.7306252      5.7306252      2.8653126
 Leave Link  202 at Tue Aug  5 11:21:06 2025, MaxMem=   268435456 cpu:         0.0
 (Enter /home/lmod/software/Binaries/g09/D01/l9999.exe)
 1\1\GINC-CN012\FOpt\RB3LYP\def2TZVP\C6H6\STUDENT25\05-Aug-2025\0\\#P B
 3LYP/Def2TZVP opt freq\\benceno_GS\\0,1\C,-0.000000084,1.391233,0.\C,-
 1.2048431626,0.6956164272,0.\C,1.2048430786,0.6956165728,0.\H,-2.14280
 11898,1.2371466712,0.\H,2.1428010404,1.2371469301,0.\C,-1.2048430786,-
 0.6956165728,0.\C,1.2048431626,-0.6956164272,0.\H,-2.1428010404,-1.237
 1469301,0.\H,2.1428011898,-1.2371466712,0.\C,0.000000084,-1.391233,0.\
 H,0.0000001495,-2.4742936013,0.\H,-0.0000001495,2.4742936013,0.\\Versi
 on=ES64L-G09RevD.01\State=1-A1G\HF=-232.3373673\RMSD=2.670e-09\RMSF=6.
 274e-05\Dipole=0.,0.,0.\Quadrupole=1.9152507,1.9152507,-3.8305015,0.,0
 .,0.\PG=D06H [3C2'(H1C1.C1H1)]\\@


 WHAT THE SLIME CONTAINS, THE GLOWING REVEALS
 BY THE FLAME'S BRIGHT HUE WHEN YOU IGNITE IT.
   --  LEONARD THURNEYSSER, 1531-1596
 DESCRIBING HIS FLAME PHOTOLYSIS ANALYTIC METHOD
 Leave Link 9999 at Tue Aug  5 11:21:06 2025, MaxMem=   268435456 cpu:         0.0
 Job cpu time:       0 days  0 hours  0 minutes 24.1 seconds.
 File lengths (MBytes):  RWF=   2160 Int=      0 D2E=      0 Chk=     32 Scr=     32
 Normal termination of Gaussian 09 at Tue Aug  5 11:21:06 2025.
 (Enter /home/lmod/software/Binaries/g09/D01/l1.exe)
 Link1:  Proceeding to internal job step number  2.
 --------------------------------------------------------------------
 #P Geom=AllCheck Guess=TCheck SCRF=Check GenChk RB3LYP/def2TZVP Freq
 --------------------------------------------------------------------
 1/10=4,29=7,30=1,38=1,40=1/1,3;
 2/12=2,40=1/2;
 3/5=44,7=101,11=2,14=-4,16=1,25=1,30=1,70=2,71=2,74=-5,116=1,140=1/1,2,3;
 4/5=101/1;
 5/5=2,98=1/2;
 8/6=4,10=90,11=11/1;
 11/6=1,8=1,9=11,15=111,16=1/1,2,10;
 10/6=1/2;
 6/7=2,8=2,9=2,10=2,18=1,28=1/1;
 7/8=1,10=1,25=1/1,2,3,16;
 1/10=4,30=1/3;
 99//99;
 Leave Link    1 at Tue Aug  5 11:21:06 2025, MaxMem=   268435456 cpu:         0.0
 (Enter /home/lmod/software/Binaries/g09/D01/l101.exe)
 Structure from the checkpoint file:  "benceno_GS.chk"
 ----------
 benceno_GS
 ----------
 Charge =  0 Multiplicity = 1
 Redundant internal coordinates found in file.
 C,0,-0.000000084,1.391233,0.
 C,0,-1.2048431626,0.6956164272,0.
 C,0,1.2048430786,0.6956165728,0.
 H,0,-2.1428011898,1.2371466712,0.
 H,0,2.1428010404,1.2371469301,0.
 C,0,-1.2048430786,-0.6956165728,0.
 C,0,1.2048431626,-0.6956164272,0.
 H,0,-2.1428010404,-1.2371469301,0.
 H,0,2.1428011898,-1.2371466712,0.
 C,0,0.000000084,-1.391233,0.
 H,0,0.0000001495,-2.4742936013,0.
 H,0,-0.0000001495,2.4742936013,0.
 Recover connectivity data from disk.
 NAtoms=     12 NQM=       12 NQMF=       0 NMMI=      0 NMMIF=      0
                NMic=       0 NMicF=      0.
                    Isotopes and Nuclear Properties:
 (Nuclear quadrupole moments (NQMom) in fm**2, nuclear magnetic moments (NMagM)
  in nuclear magnetons)

  Atom         1           2           3           4           5           6           7           8           9          10
 IAtWgt=          12          12          12           1           1          12          12           1           1          12
 AtmWgt=  12.0000000  12.0000000  12.0000000   1.0078250   1.0078250  12.0000000  12.0000000   1.0078250   1.0078250  12.0000000
 NucSpn=           0           0           0           1           1           0           0           1           1           0
 AtZEff=  -3.6000000  -3.6000000  -3.6000000  -1.0000000  -1.0000000  -3.6000000  -3.6000000  -1.0000000  -1.0000000  -3.6000000
 NQMom=    0.0000000   0.0000000   0.0000000   0.0000000   0.0000000   0.0000000   0.0000000   0.0000000   0.0000000   0.0000000
 NMagM=    0.0000000   0.0000000   0.0000000   2.7928460   2.7928460   0.0000000   0.0000000   2.7928460   2.7928460   0.0000000
 AtZNuc=   6.0000000   6.0000000   6.0000000   1.0000000   1.0000000   6.0000000   6.0000000   1.0000000   1.0000000   6.0000000

  Atom        11          12
 IAtWgt=           1           1
 AtmWgt=   1.0078250   1.0078250
 NucSpn=           1           1
 AtZEff=  -1.0000000  -1.0000000
 NQMom=    0.0000000   0.0000000
 NMagM=    2.7928460   2.7928460
 AtZNuc=   1.0000000   1.0000000
 Leave Link  101 at Tue Aug  5 11:21:06 2025, MaxMem=   268435456 cpu:         0.1
 (Enter /home/lmod/software/Binaries/g09/D01/l103.exe)

 GradGradGradGradGradGradGradGradGradGradGradGradGradGradGradGradGradGrad
 Berny optimization.
 Initialization pass.
                           ----------------------------
                           !    Initial Parameters    !
                           ! (Angstroms and Degrees)  !
 --------------------------                            --------------------------
 ! Name  Definition              Value          Derivative Info.                !
 --------------------------------------------------------------------------------
 ! R1    R(1,2)                  1.3912         calculate D2E/DX2 analytically  !
 ! R2    R(1,3)                  1.3912         calculate D2E/DX2 analytically  !
 ! R3    R(1,12)                 1.0831         calculate D2E/DX2 analytically  !
 ! R4    R(2,4)                  1.0831         calculate D2E/DX2 analytically  !
 ! R5    R(2,6)                  1.3912         calculate D2E/DX2 analytically  !
 ! R6    R(3,5)                  1.0831         calculate D2E/DX2 analytically  !
 ! R7    R(3,7)                  1.3912         calculate D2E/DX2 analytically  !
 ! R8    R(6,8)                  1.0831         calculate D2E/DX2 analytically  !
 ! R9    R(6,10)                 1.3912         calculate D2E/DX2 analytically  !
 ! R10   R(7,9)                  1.0831         calculate D2E/DX2 analytically  !
 ! R11   R(7,10)                 1.3912         calculate D2E/DX2 analytically  !
 ! R12   R(10,11)                1.0831         calculate D2E/DX2 analytically  !
 ! A1    A(2,1,3)              120.0            calculate D2E/DX2 analytically  !
 ! A2    A(2,1,12)             120.0            calculate D2E/DX2 analytically  !
 ! A3    A(3,1,12)             120.0            calculate D2E/DX2 analytically  !
 ! A4    A(1,2,4)              120.0            calculate D2E/DX2 analytically  !
 ! A5    A(1,2,6)              120.0            calculate D2E/DX2 analytically  !
 ! A6    A(4,2,6)              120.0            calculate D2E/DX2 analytically  !
 ! A7    A(1,3,5)              120.0            calculate D2E/DX2 analytically  !
 ! A8    A(1,3,7)              120.0            calculate D2E/DX2 analytically  !
 ! A9    A(5,3,7)              120.0            calculate D2E/DX2 analytically  !
 ! A10   A(2,6,8)              120.0            calculate D2E/DX2 analytically  !
 ! A11   A(2,6,10)             120.0            calculate D2E/DX2 analytically  !
 ! A12   A(8,6,10)             120.0            calculate D2E/DX2 analytically  !
 ! A13   A(3,7,9)              120.0            calculate D2E/DX2 analytically  !
 ! A14   A(3,7,10)             120.0            calculate D2E/DX2 analytically  !
 ! A15   A(9,7,10)             120.0            calculate D2E/DX2 analytically  !
 ! A16   A(6,10,7)             120.0            calculate D2E/DX2 analytically  !
 ! A17   A(6,10,11)            120.0            calculate D2E/DX2 analytically  !
 ! A18   A(7,10,11)            120.0            calculate D2E/DX2 analytically  !
 ! D1    D(3,1,2,4)            180.0            calculate D2E/DX2 analytically  !
 ! D2    D(3,1,2,6)              0.0            calculate D2E/DX2 analytically  !
 ! D3    D(12,1,2,4)             0.0            calculate D2E/DX2 analytically  !
 ! D4    D(12,1,2,6)           180.0            calculate D2E/DX2 analytically  !
 ! D5    D(2,1,3,5)            180.0            calculate D2E/DX2 analytically  !
 ! D6    D(2,1,3,7)              0.0            calculate D2E/DX2 analytically  !
 ! D7    D(12,1,3,5)             0.0            calculate D2E/DX2 analytically  !
 ! D8    D(12,1,3,7)           180.0            calculate D2E/DX2 analytically  !
 ! D9    D(1,2,6,8)            180.0            calculate D2E/DX2 analytically  !
 ! D10   D(1,2,6,10)             0.0            calculate D2E/DX2 analytically  !
 ! D11   D(4,2,6,8)              0.0            calculate D2E/DX2 analytically  !
 ! D12   D(4,2,6,10)           180.0            calculate D2E/DX2 analytically  !
 ! D13   D(1,3,7,9)            180.0            calculate D2E/DX2 analytically  !
 ! D14   D(1,3,7,10)             0.0            calculate D2E/DX2 analytically  !
 ! D15   D(5,3,7,9)              0.0            calculate D2E/DX2 analytically  !
 ! D16   D(5,3,7,10)           180.0            calculate D2E/DX2 analytically  !
 ! D17   D(2,6,10,7)             0.0            calculate D2E/DX2 analytically  !
 ! D18   D(2,6,10,11)          180.0            calculate D2E/DX2 analytically  !
 ! D19   D(8,6,10,7)           180.0            calculate D2E/DX2 analytically  !
 ! D20   D(8,6,10,11)            0.0            calculate D2E/DX2 analytically  !
 ! D21   D(3,7,10,6)             0.0            calculate D2E/DX2 analytically  !
 ! D22   D(3,7,10,11)          180.0            calculate D2E/DX2 analytically  !
 ! D23   D(9,7,10,6)           180.0            calculate D2E/DX2 analytically  !
 ! D24   D(9,7,10,11)            0.0            calculate D2E/DX2 analytically  !
 --------------------------------------------------------------------------------
 Trust Radius=3.00D-01 FncErr=1.00D-07 GrdErr=1.00D-07
 Number of steps in this run=      2 maximum allowed number of steps=      2.
 GradGradGradGradGradGradGradGradGradGradGradGradGradGradGradGradGradGrad

 Leave Link  103 at Tue Aug  5 11:21:06 2025, MaxMem=   268435456 cpu:         0.0
 (Enter /home/lmod/software/Binaries/g09/D01/l202.exe)
                          Input orientation:                          
 ---------------------------------------------------------------------
 Center     Atomic      Atomic             Coordinates (Angstroms)
 Number     Number       Type             X           Y           Z
 ---------------------------------------------------------------------
      1          6           0       -0.000000    1.391233    0.000000
      2          6           0       -1.204843    0.695616   -0.000000
      3          6           0        1.204843    0.695617    0.000000
      4          1           0       -2.142801    1.237147   -0.000000
      5          1           0        2.142801    1.237147    0.000000
      6          6           0       -1.204843   -0.695617   -0.000000
      7          6           0        1.204843   -0.695616    0.000000
      8          1           0       -2.142801   -1.237147   -0.000000
      9          1           0        2.142801   -1.237147    0.000000
     10          6           0        0.000000   -1.391233    0.000000
     11          1           0        0.000000   -2.474294    0.000000
     12          1           0       -0.000000    2.474294    0.000000
 ---------------------------------------------------------------------
                    Distance matrix (angstroms):
                    1          2          3          4          5
     1  C    0.000000
     2  C    1.391233   0.000000
     3  C    1.391233   2.409686   0.000000
     4  H    2.148334   1.083061   3.391162   0.000000
     5  H    2.148334   3.391162   1.083061   4.285602   0.000000
     6  C    2.409686   1.391233   2.782466   2.148334   3.865527
     7  C    2.409686   2.782466   1.391233   3.865527   2.148334
     8  H    3.391162   2.148334   3.865527   2.474294   4.948587
     9  H    3.391162   3.865527   2.148334   4.948587   2.474294
    10  C    2.782466   2.409686   2.409686   3.391162   3.391162
    11  H    3.865527   3.391162   3.391162   4.285602   4.285602
    12  H    1.083061   2.148334   2.148334   2.474294   2.474294
                    6          7          8          9         10
     6  C    0.000000
     7  C    2.409686   0.000000
     8  H    1.083061   3.391162   0.000000
     9  H    3.391162   1.083061   4.285602   0.000000
    10  C    1.391233   1.391233   2.148334   2.148334   0.000000
    11  H    2.148334   2.148334   2.474294   2.474294   1.083061
    12  H    3.391162   3.391162   4.285602   4.285602   3.865527
                   11         12
    11  H    0.000000
    12  H    4.948587   0.000000
 Stoichiometry    C6H6
 Framework group  D6H[3C2'(HC.CH)]
 Deg. of freedom     2
 Full point group                 D6H     NOp  24
 RotChk:  IX=2 Diff= 1.02D-15
 Largest Abelian subgroup         D2H     NOp   8
 Largest concise Abelian subgroup D2      NOp   4
                         Standard orientation:                         
 ---------------------------------------------------------------------
 Center     Atomic      Atomic             Coordinates (Angstroms)
 Number     Number       Type             X           Y           Z
 ---------------------------------------------------------------------
      1          6           0       -0.000000    1.391233    0.000000
      2          6           0       -1.204843    0.695616    0.000000
      3          6           0        1.204843    0.695616    0.000000
      4          1           0       -2.142801    1.237147    0.000000
      5          1           0        2.142801    1.237147    0.000000
      6          6           0       -1.204843   -0.695616    0.000000
      7          6           0        1.204843   -0.695616   -0.000000
      8          1           0       -2.142801   -1.237147    0.000000
      9          1           0        2.142801   -1.237147    0.000000
     10          6           0        0.000000   -1.391233   -0.000000
     11          1           0        0.000000   -2.474294    0.000000
     12          1           0       -0.000000    2.474294    0.000000
 ---------------------------------------------------------------------
 Rotational constants (GHZ):      5.7306252      5.7306252      2.8653126
 Leave Link  202 at Tue Aug  5 11:21:06 2025, MaxMem=   268435456 cpu:         0.0
 (Enter /home/lmod/software/Binaries/g09/D01/l301.exe)
 Standard basis: def2TZVP (5D, 7F)
 Ernie: Thresh=  0.10000D-02 Tol=  0.10000D-05 Strict=F.
 There are    51 symmetry adapted cartesian basis functions of AG  symmetry.
 There are    39 symmetry adapted cartesian basis functions of B1G symmetry.
 There are    15 symmetry adapted cartesian basis functions of B2G symmetry.
 There are    21 symmetry adapted cartesian basis functions of B3G symmetry.
 There are    15 symmetry adapted cartesian basis functions of AU  symmetry.
 There are    21 symmetry adapted cartesian basis functions of B1U symmetry.
 There are    51 symmetry adapted cartesian basis functions of B2U symmetry.
 There are    39 symmetry adapted cartesian basis functions of B3U symmetry.
 There are    44 symmetry adapted basis functions of AG  symmetry.
 There are    34 symmetry adapted basis functions of B1G symmetry.
 There are    14 symmetry adapted basis functions of B2G symmetry.
 There are    19 symmetry adapted basis functions of B3G symmetry.
 There are    14 symmetry adapted basis functions of AU  symmetry.
 There are    19 symmetry adapted basis functions of B1U symmetry.
 There are    44 symmetry adapted basis functions of B2U symmetry.
 There are    34 symmetry adapted basis functions of B3U symmetry.
   222 basis functions,   354 primitive gaussians,   252 cartesian basis functions
    21 alpha electrons       21 beta electrons
       nuclear repulsion energy       203.9661241995 Hartrees.
 IExCor=  402 DFT=T Ex+Corr=B3LYP ExCW=0 ScaHFX=  0.200000
 ScaDFX=  0.800000  0.720000  1.000000  0.810000 ScalE2=  1.000000  1.000000
 IRadAn=      0 IRanWt=     -1 IRanGd=            0 ICorTp=0 IEmpDi=  4
 NAtoms=   12 NActive=   12 NUniq=    2 SFac= 4.00D+00 NAtFMM=   60 NAOKFM=F Big=F
 Integral buffers will be    131072 words long.
 Raffenetti 2 integral format.
 Two-electron integral symmetry is turned on.
 Leave Link  301 at Tue Aug  5 11:21:06 2025, MaxMem=   268435456 cpu:         0.0
 (Enter /home/lmod/software/Binaries/g09/D01/l302.exe)
 NPDir=0 NMtPBC=     1 NCelOv=     1 NCel=       1 NClECP=     1 NCelD=      1
         NCelK=      1 NCelE2=     1 NClLst=     1 CellRange=     0.0.
 One-electron integrals computed using PRISM.
 One-electron integral symmetry used in STVInt
  24 Symmetry operations used in ECPInt.
 ECPInt:  NShTT=    4095 NPrTT=   12396 LenC2=    4075 LenP2D=   10419.
 LDataN:  DoStor=T MaxTD1= 6 Len=  172
 NBasis=   222 RedAO= T EigKep=  8.51D-06  NBF=    44    34    14    19    14    19    44    34
 NBsUse=   222 1.00D-06 EigRej= -1.00D+00 NBFU=    44    34    14    19    14    19    44    34
 Precomputing XC quadrature grid using
 IXCGrd= 4 IRadAn=           0 IRanWt=          -1 IRanGd=           0 AccXCQ= 0.00D+00.
 Generated NRdTot=       0 NPtTot=           0 NUsed=           0 NTot=          32
 NSgBfM=   251   251   251   251   251 MxSgAt=    12 MxSgA2=    12.
 Leave Link  302 at Tue Aug  5 11:21:07 2025, MaxMem=   268435456 cpu:         0.7
 (Enter /home/lmod/software/Binaries/g09/D01/l303.exe)
 DipDrv:  MaxL=1.
 Leave Link  303 at Tue Aug  5 11:21:07 2025, MaxMem=   268435456 cpu:         0.0
 (Enter /home/lmod/software/Binaries/g09/D01/l401.exe)
 Initial guess from the checkpoint file:  "benceno_GS.chk"
 B after Tr=     0.000000   -0.000000    0.000000
         Rot=    1.000000   -0.000000    0.000000   -0.000000 Ang=   0.00 deg.
 Guess basis will be translated and rotated to current coordinates.
 JPrj=2 DoOrth=T DoCkMO=T.
 Initial guess orbital symmetries:
       Occupied  (?A) (B2G) (B2G) (?B) (?B) (?C) (?A) (B2G) (B2G)
                 (?B) (?B) (?A) (?C) (?C) (B2G) (B2G) (?D) (?B)
                 (?B) (?D) (?D)
       Virtual   (?D) (?D) (?A) (B2G) (B2G) (?B) (?B) (?C) (?D)
                 (?A) (?D) (?C) (?B) (?B) (B2G) (B2G) (?D) (?D)
                 (B2G) (B2G) (?A) (?D) (?D) (?B) (?B) (?C) (?D)
                 (B2G) (B2G) (?B) (?B) (?A) (?D) (?A) (?B) (?B)
                 (?C) (B2G) (B2G) (B2G) (B2G) (?D) (?A) (?C) (?D)
                 (?D) (?B) (?B) (?A) (?D) (?D) (?C) (?A) (?C) (?B)
                 (?B) (B2G) (B2G) (?D) (?D) (?D) (B2G) (B2G) (?B)
                 (?B) (?D) (?D) (B2G) (B2G) (?A) (?A) (?C) (?D)
                 (?B) (?B) (?D) (?D) (B2G) (B2G) (?D) (?C) (?A)
                 (?D) (?D) (?D) (?B) (?B) (B2G) (B2G) (?C) (?D)
                 (?D) (?D) (?D) (?D) (?C) (?B) (?B) (?C) (?B) (?B)
                 (?A) (B2G) (B2G) (?D) (?D) (B2G) (B2G) (?A) (?B)
                 (?B) (?C) (?D) (B2G) (B2G) (?D) (?D) (?A) (?B)
                 (?B) (?C) (?D) (?D) (?D) (?B) (?B) (?A) (?D) (?D)
                 (B2G) (B2G) (?C) (?D) (?D) (?D) (B2G) (B2G) (?D)
                 (?D) (?B) (?B) (?A) (?B) (?B) (?D) (B2G) (B2G)
                 (?D) (?D) (?D) (?D) (?A) (B2G) (B2G) (?C) (?C)
                 (?D) (?D) (?A) (?B) (?B) (?C) (?D) (?D) (?C) (?A)
                 (B2G) (B2G) (?D) (?B) (?B) (?C) (?A) (?D) (?D)
                 (?D) (?D) (?B) (?B) (B2G) (B2G) (?D) (B2G) (B2G)
                 (?D) (?B) (?B) (?B) (?B) (B2G) (B2G) (?C) (?A)
                 (?C) (?A) (?A) (B2G) (B2G) (?B) (?B) (?C)
 Leave Link  401 at Tue Aug  5 11:21:07 2025, MaxMem=   268435456 cpu:         0.2
 (Enter /home/lmod/software/Binaries/g09/D01/l502.exe)
 Closed shell SCF:
 Using DIIS extrapolation, IDIIS=  1040.
 Integral symmetry usage will be decided dynamically.
 IVT=      215186 IEndB=      215186 NGot=   268435456 MDV=   268300667
 LenX=   268300667 LenY=   268236722
 Requested convergence on RMS density matrix=1.00D-08 within 128 cycles.
 Requested convergence on MAX density matrix=1.00D-06.
 Requested convergence on             energy=1.00D-06.
 No special actions if energy rises.
 Fock matrices will be formed incrementally for  20 cycles.

 Cycle   1  Pass 1  IDiag  1:
 FoFJK:  IHMeth= 1 ICntrl=       0 DoSepK=F KAlg= 0 I1Cent=   0 FoldK=F
 IRaf= 980000000 NMat=   1 IRICut=       1 DoRegI=T DoRafI=F ISym2E= 1.
 FoFCou: FMM=F IPFlag=           0 FMFlag=      100000 FMFlg1=           0
         NFxFlg=           0 DoJE=F BraDBF=F KetDBF=F FulRan=T
         wScrn=  0.000000 ICntrl=       0 IOpCl=  0 I1Cent=           0 NGrid=           0
         NMat0=    1 NMatS0=      1 NMatT0=    0 NMatD0=    1 NMtDS0=    0 NMtDT0=    0
 Petite list used in FoFCou.
 E= -232.337367327148    
 DIIS: error= 4.88D-09 at cycle   1 NSaved=   1.
 NSaved= 1 IEnMin= 1 EnMin= -232.337367327148     IErMin= 1 ErrMin= 4.88D-09
 ErrMax= 4.88D-09  0.00D+00 EMaxC= 1.00D-01 BMatC= 2.10D-15 BMatP= 2.10D-15
 IDIUse=1 WtCom= 1.00D+00 WtEn= 0.00D+00
 Coeff-Com:  0.100D+01
 Coeff:      0.100D+01
 Gap=     0.245 Goal=   None    Shift=    0.000
 RMSDP=6.71D-10 MaxDP=1.07D-08              OVMax= 1.96D-08

 SCF Done:  E(RB3LYP) =  -232.337367327     A.U. after    1 cycles
            NFock=  1  Conv=0.67D-09     -V/T= 2.0053
 KE= 2.311024293891D+02 PE=-9.464017458651D+02 EE= 2.789958249494D+02
 Leave Link  502 at Tue Aug  5 11:21:08 2025, MaxMem=   268435456 cpu:         1.9
 (Enter /home/lmod/software/Binaries/g09/D01/l801.exe)
 DoSCS=F DFT=T ScalE2(SS,OS)=  1.000000  1.000000
 Range of M.O.s used for correlation:     1   222
 NBasis=   222 NAE=    21 NBE=    21 NFC=     0 NFV=     0
 NROrb=    222 NOA=    21 NOB=    21 NVA=   201 NVB=   201

 **** Warning!!: The largest alpha MO coefficient is  0.79602186D+02

 Leave Link  801 at Tue Aug  5 11:21:09 2025, MaxMem=   268435456 cpu:         0.0
 (Enter /home/lmod/software/Binaries/g09/D01/l1101.exe)
 Using compressed storage, NAtomX=    12.
 Will process     13 centers per pass.
  24 Symmetry operations used in ECPInt.
[...]
        19        -0.0000      0.0000      0.0000     -0.0000
        20         0.0000      0.0000     -0.0000     -0.0000
  1/2[<0|del|b>*<b|r|0> + (<0|r|b>*<b|del|0>)*] (Au)
       state          X           Y           Z        Dip. S.   Osc.(frdel)
         1        -0.0000     -0.0000     -0.0000      0.0000      0.0000
         2        -0.0000     -0.0000     -0.0000      0.0000      0.0000
         3        -0.0000     -0.8838     -0.0000      0.8838      0.5892
         4        -0.8837     -0.0000      0.0000      0.8837      0.5892
         5        -0.0000     -0.0000     -0.0000      0.0000      0.0000
         6        -0.0000     -0.0000      0.0000      0.0000      0.0000
         7        -0.0000     -0.0000     -0.0000      0.0000      0.0000
         8        -0.0000     -0.0000     -0.0000      0.0000      0.0000
         9         0.0000     -0.0000     -0.0000      0.0000      0.0000
        10         0.0000     -0.0000     -0.0141      0.0141      0.0094
        11        -0.0000     -0.0000     -0.0261      0.0261      0.0174
        12        -0.0000     -0.0000      0.0000      0.0000      0.0000
        13        -0.0000     -0.0000     -0.0000      0.0000      0.0000
        14        -0.0000     -0.0000     -0.0000      0.0000      0.0000
        15        -0.0000     -0.0000      0.0000      0.0000      0.0000
        16        -0.0000     -0.0000     -0.0000      0.0000      0.0000
        17        -0.0000     -0.0000      0.0000      0.0000      0.0000
        18        -0.0000      0.0000     -0.0000      0.0000      0.0000
        19        -0.0000      0.0000     -0.0000      0.0000      0.0000
        20        -0.0000     -0.0000     -0.0000      0.0000      0.0000

 Excitation energies and oscillator strengths:
 
 Excited state symmetry could not be determined.
 Excited State   1:      Singlet-?Sym    5.4398 eV  227.92 nm  f=0.0000  <S**2>=0.000
      20 -> 23         0.49971
      21 -> 22         0.49971
 This state for optimization and/or second-order correction.
 Total Energy, E(TD-HF/TD-KS) =  -232.137458096    
 Copying the excited state density for this state as the 1-particle RhoCI density.
 
 Excited state symmetry could not be determined.
 Excited State   2:      Singlet-?Sym    6.1100 eV  202.92 nm  f=0.0000  <S**2>=0.000
      20 -> 22        -0.49809
      21 -> 23         0.49810
 
 Excited state symmetry could not be determined.
 Excited State   3:      Singlet-?Sym    7.0974 eV  174.69 nm  f=0.5835  <S**2>=0.000
      20 -> 22         0.49609
      21 -> 23         0.49608
 
 Excited state symmetry could not be determined.
 Excited State   4:      Singlet-?Sym    7.0974 eV  174.69 nm  f=0.5835  <S**2>=0.000
      20 -> 23         0.49608
      21 -> 22        -0.49608
 
 Excited state symmetry could not be determined.
 Excited State   5:      Singlet-?Sym    7.2776 eV  170.36 nm  f=0.0000  <S**2>=0.000
      21 -> 24         0.70521
 
 Excited state symmetry could not be determined.
 Excited State   6:      Singlet-?Sym    7.2776 eV  170.36 nm  f=0.0000  <S**2>=0.000
      20 -> 24         0.70521
 
 Excited state symmetry could not be determined.
 Excited State   7:      Singlet-?Sym    7.6505 eV  162.06 nm  f=0.0000  <S**2>=0.000
      18 -> 22         0.49858
      19 -> 23         0.49859
 
 Excited state symmetry could not be determined.
 Excited State   8:      Singlet-?Sym    7.7484 eV  160.01 nm  f=0.0000  <S**2>=0.000
      18 -> 23         0.49802
      19 -> 22         0.49788
 
 Excited state symmetry could not be determined.
 Excited State   9:      Singlet-?Sym    7.7484 eV  160.01 nm  f=0.0000  <S**2>=0.000
      18 -> 22         0.49795
      19 -> 23        -0.49794
 
 Excited state symmetry could not be determined.
 Excited State  10:      Singlet-?Sym    7.7514 eV  159.95 nm  f=0.0102  <S**2>=0.000
      18 -> 23        -0.49768
      19 -> 22         0.49783
 
 Excited state symmetry could not be determined.
 Excited State  11:      Singlet-?Sym    8.1165 eV  152.76 nm  f=0.0179  <S**2>=0.000
      20 -> 25        -0.49487
      21 -> 26         0.49491
 
 Excited state symmetry could not be determined.
 Excited State  12:      Singlet-?Sym    8.1894 eV  151.40 nm  f=0.0000  <S**2>=0.000
      20 -> 26        -0.49799
      21 -> 25         0.49799
 
 Excited state symmetry could not be determined.
 Excited State  13:      Singlet-?Sym    8.1894 eV  151.40 nm  f=0.0000  <S**2>=0.000
      20 -> 25         0.49801
      21 -> 26         0.49797
 
 Excited state symmetry could not be determined.
 Excited State  14:      Singlet-?Sym    8.2772 eV  149.79 nm  f=0.0000  <S**2>=0.000
      20 -> 26         0.49983
      21 -> 25         0.49983
 
 Excited state symmetry could not be determined.
 Excited State  15:      Singlet-?Sym    8.9518 eV  138.50 nm  f=0.0000  <S**2>=0.000
      20 -> 28         0.49770
      21 -> 27         0.49775
 
 Excited state symmetry could not be determined.
 Excited State  16:      Singlet-?Sym    8.9518 eV  138.50 nm  f=0.0000  <S**2>=0.000
      20 -> 27        -0.49734
      21 -> 28         0.49811
 
 Excited state symmetry could not be determined.
 Excited State  17:      Singlet-?Sym    8.9564 eV  138.43 nm  f=0.0000  <S**2>=0.000
      20 -> 27         0.49916
      21 -> 28         0.49839
 
 Excited state symmetry could not be determined.
 Excited State  18:      Singlet-?Sym    8.9681 eV  138.25 nm  f=0.0000  <S**2>=0.000
      20 -> 28         0.49841
      21 -> 27        -0.49836
 
 Excited state symmetry could not be determined.
 Excited State  19:      Singlet-?Sym    8.9716 eV  138.20 nm  f=0.0000  <S**2>=0.000
      17 -> 23         0.66821
      21 -> 30        -0.21977
 
 Excited state symmetry could not be determined.
 Excited State  20:      Singlet-?Sym    8.9716 eV  138.20 nm  f=0.0000  <S**2>=0.000
      17 -> 22         0.66821
      20 -> 30         0.21977
 SavETr:  write IOETrn=   770 NScale= 10 NData=  16 NLR=1 NState=   20 LETran=     370.
 The selected state is a singlet
 CISAX will form     1 AO SS matrices at one time.
 NMat=     1 NSing=     1 JSym2X=-1.
 CISAX will form     1 AO SS matrices at one time.
 NMat=     1 NSing=     1 JSym2X=-1.
 Leave Link  914 at Tue Aug  5 11:28:52 2025, MaxMem=    33554432 cpu:       303.1
 (Enter /home/lmod/software/Binaries/g09/D01/l1002.exe)
 Minotr:  Closed shell wavefunction.
          Computing CIS/TD-HF/TD-KS derivatives.
          Using Z-Vector for PSCF gradient.
          Skipping F1 and S1 gradient terms here.
          Frozen-core window.
          Direct CPHF calculation.
          Differentiating once with respect to electric field.
                with respect to dipole field.
          Electric field/nuclear overlap derivatives assumed to be zero.
          Requested convergence is 1.0D-10 RMS, and 1.0D-09 maximum.
          NewPWx=F KeepS1=T KeepF1=T KeepIn=T MapXYZ=F SortEE=F KeepMc=T.
          MDV=      33554116 using IRadAn=       0.
 Using stored XC quadrature information.
          Solving linear equations separately, MaxMat=       0.
          There are     1 degrees of freedom in the 1st order CPHF.  IDoFFX=0 NUNeed=     1.
 FoFJK:  IHMeth= 1 ICntrl=       0 DoSepK=F KAlg= 0 I1Cent=   0 FoldK=F
 IRaf= 980000000 NMat=   1 IRICut=       1 DoRegI=T DoRafI=F ISym2E=-1.
 FoFCou: FMM=F IPFlag=           0 FMFlag=      100000 FMFlg1=           0
         NFxFlg=           0 DoJE=F BraDBF=F KetDBF=F FulRan=T
         wScrn=  0.000000 ICntrl=       0 IOpCl=  0 I1Cent=           0 NGrid=           0
         NMat0=    1 NMatS0=      1 NMatT0=    0 NMatD0=    1 NMtDS0=    0 NMtDT0=    0
 Petite list used in FoFCou.
 LinEq1:  Iter=  0 NonCon=     1 RMS=1.74D-03 Max=2.94D-02 NDo=     1
 AX will form     1 AO Fock derivatives at one time.
 LinEq1:  Iter=  1 NonCon=     1 RMS=4.43D-04 Max=1.12D-02 NDo=     1
 LinEq1:  Iter=  2 NonCon=     1 RMS=1.34D-04 Max=2.98D-03 NDo=     1
 LinEq1:  Iter=  3 NonCon=     1 RMS=7.68D-06 Max=8.92D-05 NDo=     1
 LinEq1:  Iter=  4 NonCon=     1 RMS=8.28D-07 Max=1.84D-05 NDo=     1
 LinEq1:  Iter=  5 NonCon=     1 RMS=5.72D-08 Max=1.46D-06 NDo=     1
 LinEq1:  Iter=  6 NonCon=     1 RMS=4.09D-08 Max=1.07D-06 NDo=     1
 LinEq1:  Iter=  7 NonCon=     1 RMS=5.25D-09 Max=8.78D-08 NDo=     1
 LinEq1:  Iter=  8 NonCon=     1 RMS=2.50D-10 Max=4.08D-09 NDo=     1
 LinEq1:  Iter=  9 NonCon=     0 RMS=1.03D-11 Max=1.34D-10 NDo=     1
 Linear equations converged to 1.000D-10 1.000D-09 after     9 iterations.
 End of Minotr F.D. properties file   721 does not exist.
 End of Minotr F.D. properties file   722 does not exist.
 End of Minotr F.D. properties file   788 does not exist.
 Leave Link 1002 at Tue Aug  5 11:29:37 2025, MaxMem=    33554432 cpu:        44.1
 (Enter /home/lmod/software/Binaries/g09/D01/l601.exe)
 Copying SCF densities to generalized density rwf, IOpCl= 0 IROHF=0.

 **********************************************************************

            Population analysis using the CI density.

 **********************************************************************

 Orbital symmetries:
       Occupied  (?A) (B2G) (B2G) (?B) (?B) (?C) (?A) (B2G) (B2G)
                 (?B) (?B) (?A) (?C) (?C) (B2G) (B2G) (?D) (?B)
                 (?B) (?D) (?D)
       Virtual   (?D) (?D) (?A) (B2G) (B2G) (?B) (?B) (?C) (?D)
                 (?A) (?D) (?C) (?B) (?B) (B2G) (B2G) (?D) (?D)
                 (B2G) (B2G) (?A) (?D) (?D) (?B) (?B) (?C) (?D)
                 (B2G) (B2G) (?B) (?B) (?A) (?D) (?A) (?B) (?B)
                 (?C) (B2G) (B2G) (B2G) (B2G) (?D) (?A) (?C) (?D)
                 (?D) (?B) (?B) (?A) (?D) (?D) (?C) (?A) (?C) (?B)
                 (?B) (B2G) (B2G) (?D) (?D) (?D) (B2G) (B2G) (?B)
                 (?B) (?D) (?D) (B2G) (B2G) (?A) (?A) (?C) (?D)
                 (?B) (?B) (?D) (?D) (B2G) (B2G) (?D) (?C) (?A)
                 (?D) (?D) (?D) (?B) (?B) (B2G) (B2G) (?C) (?D)
                 (?D) (?D) (?D) (?D) (?C) (?B) (?B) (?C) (?B) (?B)
                 (?A) (B2G) (B2G) (?D) (?D) (B2G) (B2G) (?A) (?B)
                 (?B) (?C) (?D) (B2G) (B2G) (?D) (?D) (?A) (?B)
                 (?B) (?C) (?D) (?D) (?D) (?B) (?B) (?A) (?D) (?D)
                 (B2G) (B2G) (?C) (?D) (?D) (?D) (B2G) (B2G) (?D)
                 (?D) (?B) (?B) (?A) (?B) (?B) (?D) (B2G) (B2G)
                 (?D) (?D) (?D) (?D) (?A) (B2G) (B2G) (?C) (?C)
                 (?D) (?D) (?A) (?B) (?B) (?C) (?D) (?D) (?C) (?A)
                 (B2G) (B2G) (?D) (?B) (?B) (?C) (?A) (?D) (?D)
                 (?D) (?D) (?B) (?B) (B2G) (B2G) (?D) (B2G) (B2G)
                 (?D) (?B) (?B) (?B) (?B) (B2G) (B2G) (?C) (?A)
                 (?C) (?A) (?A) (B2G) (B2G) (?B) (?B) (?C)
 Unable to determine electronic state:  an orbital has unidentified symmetry.
 Alpha  occ. eigenvalues --  -10.17703 -10.17679 -10.17679 -10.17621 -10.17621
 Alpha  occ. eigenvalues --  -10.17593  -0.85824  -0.74948  -0.74948  -0.60632
 Alpha  occ. eigenvalues --   -0.60632  -0.52855  -0.46435  -0.45156  -0.42597
 Alpha  occ. eigenvalues --   -0.42597  -0.37318  -0.34868  -0.34868  -0.25932
 Alpha  occ. eigenvalues --   -0.25932
 Alpha virt. eigenvalues --   -0.01444  -0.01444   0.04467   0.07651   0.07651
 Alpha virt. eigenvalues --    0.10351   0.10351   0.12626   0.13996   0.14889
 Alpha virt. eigenvalues --    0.20544   0.20866   0.21446   0.21446   0.23189
 Alpha virt. eigenvalues --    0.23189   0.24685   0.24685   0.26799   0.26799
 Alpha virt. eigenvalues --    0.32593   0.32610   0.32610   0.35571   0.35571
 Alpha virt. eigenvalues --    0.38114   0.40279   0.41161   0.41161   0.43547
 Alpha virt. eigenvalues --    0.43547   0.43743   0.46150   0.46206   0.48829
 Alpha virt. eigenvalues --    0.48829   0.49021   0.50558   0.50558   0.64255
 Alpha virt. eigenvalues --    0.64255   0.65084   0.67820   0.68473   0.74502
 Alpha virt. eigenvalues --    0.74502   0.75351   0.75351   0.79868   0.84316
 Alpha virt. eigenvalues --    0.84316   0.85012   0.88700   0.88937   0.99900
 Alpha virt. eigenvalues --    0.99900   1.00854   1.00854   1.04933   1.04933
 Alpha virt. eigenvalues --    1.16516   1.17310   1.17310   1.20179   1.20179
 Alpha virt. eigenvalues --    1.22020   1.22020   1.24799   1.24799   1.28168
 Alpha virt. eigenvalues --    1.37386   1.37417   1.38382   1.44880   1.44880
 Alpha virt. eigenvalues --    1.47699   1.47699   1.48041   1.48041   1.59459
 Alpha virt. eigenvalues --    1.60667   1.64839   1.66221   1.66221   1.67706
 Alpha virt. eigenvalues --    1.68804   1.68804   1.70063   1.70063   1.76139
 Alpha virt. eigenvalues --    1.83718   1.90221   1.90221   2.03224   2.03224
 Alpha virt. eigenvalues --    2.06130   2.07254   2.07254   2.08197   2.15447
 Alpha virt. eigenvalues --    2.15447   2.21675   2.23088   2.23088   2.31564
 Alpha virt. eigenvalues --    2.45953   2.48084   2.48084   2.54797   2.55516
 Alpha virt. eigenvalues --    2.55516   2.55989   2.58158   2.65247   2.65247
 Alpha virt. eigenvalues --    2.66479   2.66479   2.66680   2.67410   2.67410
 Alpha virt. eigenvalues --    2.73546   2.74324   2.74324   2.80008   2.80143
 Alpha virt. eigenvalues --    2.80143   2.83751   2.84270   2.84270   2.84518
 Alpha virt. eigenvalues --    2.84518   2.89444   3.00820   3.09178   3.09178
 Alpha virt. eigenvalues --    3.09205   3.09205   3.13276   3.13276   3.13819
 Alpha virt. eigenvalues --    3.13819   3.18591   3.21271   3.21271   3.24155
 Alpha virt. eigenvalues --    3.25402   3.25402   3.30251   3.34663   3.37102
 Alpha virt. eigenvalues --    3.37102   3.37644   3.43884   3.43884   3.47305
 Alpha virt. eigenvalues --    3.49696   3.52154   3.52154   3.60081   3.63337
 Alpha virt. eigenvalues --    3.63337   3.74887   3.75546   3.75546   3.79169
 Alpha virt. eigenvalues --    3.86243   3.99406   3.99406   4.06398   4.06754
 Alpha virt. eigenvalues --    4.06754   4.11079   4.19720   4.19774   4.19774
 Alpha virt. eigenvalues --    4.22047   4.22047   4.28434   4.28434   4.29212
 Alpha virt. eigenvalues --    4.29212   4.62430   4.63704   4.63704   4.65422
 Alpha virt. eigenvalues --    4.82626   4.82626   4.88434   4.88434   5.20293
 Alpha virt. eigenvalues --    5.20293   5.27288   5.28582   5.41603   5.61777
 Alpha virt. eigenvalues --   21.85401  22.52877  22.52877  22.62752  22.62752
 Alpha virt. eigenvalues --   23.05358
          Condensed to atoms (all electrons):
               1          2          3          4          5          6
     1  C    5.093236   0.399953   0.399953  -0.046532  -0.046532  -0.063071
     2  C    0.399953   5.093191  -0.063073   0.422718   0.008431   0.399950
     3  C    0.399953  -0.063073   5.093191   0.008431   0.422718   0.005972
     4  H   -0.046532   0.422718   0.008431   0.551437  -0.000261  -0.046529
     5  H   -0.046532   0.008431   0.422718  -0.000261   0.551437  -0.001766
     6  C   -0.063071   0.399950   0.005972  -0.046529  -0.001766   5.093191
     7  C   -0.063071   0.005972   0.399950  -0.001766  -0.046529  -0.063073
     8  H    0.008431  -0.046529  -0.001766  -0.006722   0.000082   0.422718
     9  H    0.008431  -0.001766  -0.046529   0.000082  -0.006722   0.008431
    10  C    0.005978  -0.063071  -0.063071   0.008431   0.008431   0.399953
    11  H   -0.001767   0.008433   0.008433  -0.000261  -0.000261  -0.046538
    12  H    0.422732  -0.046538  -0.046538  -0.006722  -0.006722   0.008433
               7          8          9         10         11         12
     1  C   -0.063071   0.008431   0.008431   0.005978  -0.001767   0.422732
     2  C    0.005972  -0.046529  -0.001766  -0.063071   0.008433  -0.046538
     3  C    0.399950  -0.001766  -0.046529  -0.063071   0.008433  -0.046538
     4  H   -0.001766  -0.006722   0.000082   0.008431  -0.000261  -0.006722
     5  H   -0.046529   0.000082  -0.006722   0.008431  -0.000261  -0.006722
     6  C   -0.063073   0.422718   0.008431   0.399953  -0.046538   0.008433
     7  C    5.093191   0.008431   0.422718   0.399953  -0.046538   0.008433
     8  H    0.008431   0.551437  -0.000261  -0.046532  -0.006722  -0.000261
     9  H    0.422718  -0.000261   0.551437  -0.046532  -0.006722  -0.000261
    10  C    0.399953  -0.046532  -0.046532   5.093236   0.422732  -0.001767
    11  H   -0.046538  -0.006722  -0.006722   0.422732   0.551436   0.000082
    12  H    0.008433  -0.000261  -0.000261  -0.001767   0.000082   0.551436
 Mulliken charges:
               1
     1  C   -0.117741
     2  C   -0.117671
     3  C   -0.117671
     4  H    0.117695
     5  H    0.117695
     6  C   -0.117671
     7  C   -0.117671
     8  H    0.117695
     9  H    0.117695
    10  C   -0.117741
    11  H    0.117693
    12  H    0.117693
 Sum of Mulliken charges =   0.00000
 Mulliken charges with hydrogens summed into heavy atoms:
               1
     1  C   -0.000047
     2  C    0.000024
     3  C    0.000024
     6  C    0.000024
     7  C    0.000024
    10  C   -0.000047
 Electronic spatial extent (au):  <R**2>=            458.8218
 Charge=             -0.0000 electrons
 Dipole moment (field-independent basis, Debye):
    X=             -0.0000    Y=              0.0000    Z=              0.0000  Tot=              0.0000
 Quadrupole moment (field-independent basis, Debye-Ang):
   XX=            -32.9108   YY=            -32.9110   ZZ=            -40.1915
   XY=             -0.0000   XZ=              0.0000   YZ=             -0.0000
 Traceless Quadrupole moment (field-independent basis, Debye-Ang):
   XX=              2.4269   YY=              2.4268   ZZ=             -4.8537
   XY=             -0.0000   XZ=              0.0000   YZ=             -0.0000
 Octapole moment (field-independent basis, Debye-Ang**2):
  XXX=             -0.0000  YYY=             -0.0000  ZZZ=             -0.0000  XYY=             -0.0000
  XXY=              0.0000  XXZ=             -0.0000  XZZ=             -0.0000  YZZ=              0.0000
  YYZ=              0.0000  XYZ=             -0.0000
 Hexadecapole moment (field-independent basis, Debye-Ang**3):
 XXXX=           -278.9250 YYYY=           -278.9261 ZZZZ=            -49.7238 XXXY=             -0.0000
 XXXZ=              0.0000 YYYX=             -0.0000 YYYZ=              0.0000 ZZZX=              0.0000
 ZZZY=             -0.0000 XXYY=            -92.9752 XXZZ=            -66.0363 YYZZ=            -66.0368
 XXYZ=             -0.0000 YYXZ=              0.0000 ZZXY=             -0.0000
 N-N= 2.039661241995D+02 E-N=-9.462598805358D+02  KE= 2.313527465582D+02
 Symmetry AG   KE= 7.446292373043D+01
 Symmetry B1G  KE= 3.769373384629D+01
 Symmetry B2G  KE= 1.683312802243D+00
 Symmetry B3G  KE= 1.683263220948D+00
 Symmetry AU   KE= 6.538877323037D-01
 Symmetry B1U  KE= 2.526914049136D+00
 Symmetry B2U  KE= 7.208090429912D+01
 Symmetry B3U  KE= 4.056780687773D+01
 No NMR shielding tensors so no spin-rotation constants.
 Leave Link  601 at Tue Aug  5 11:29:37 2025, MaxMem=    33554432 cpu:         0.2
 (Enter /home/lmod/software/Binaries/g09/D01/l9999.exe)
 1\1\GINC-CN012\SP\RB3LYP TD-FC\def2TZVP\C6H6\STUDENT25\05-Aug-2025\0\\
 #P geom=check guess=read B3LYP/Def2TZVP td(singlet,root=1,NStates=20) 
 density=current\\benceno_FC\\0,1\C,0,-0.000000084,1.391233,0.\C,0,-1.2
 048431626,0.6956164272,0.\C,0,1.2048430786,0.6956165728,0.\H,0,-2.1428
 011898,1.2371466712,0.\H,0,2.1428010404,1.2371469301,0.\C,0,-1.2048430
 786,-0.6956165728,0.\C,0,1.2048431626,-0.6956164272,0.\H,0,-2.14280104
 04,-1.2371469301,0.\H,0,2.1428011898,-1.2371466712,0.\C,0,0.000000084,
 -1.391233,0.\H,0,0.0000001495,-2.4742936013,0.\H,0,-0.0000001495,2.474
 2936013,0.\\Version=ES64L-G09RevD.01\HF=-232.3373673\RMSD=3.777e-10\Di
 pole=0.,0.,0.\Quadrupole=1.8043718,1.8042679,-3.6086396,0.,0.,0.\PG=D0
 6H [3C2'(H1C1.C1H1)]\\@


 ALL THINGS ARE POSSIBLE EXCEPT SKIING THROUGH A REVOLVING DOOR.
 Job cpu time:       0 days  0 hours  5 minutes 49.7 seconds.
 File lengths (MBytes):  RWF=   2128 Int=      0 D2E=      0 Chk=     64 Scr=     32
 Normal termination of Gaussian 09 at Tue Aug  5 11:29:37 2025.
